 &FCI NORB=4 ,NELEC=7 ,MS2=1,
  ORBSYM=1,2,3,5,
  ISYM=1,
 &END
  3.885350406222e-01    1  1  1  1
  9.636733305004e-02    2  1  2  1
  3.886687356721e-01    2  2  1  1
  4.254688410901e-01    2  2  2  2
  9.636733305004e-02    3  1  3  1
  2.749212029836e-02    3  2  3  2
  3.886687356721e-01    3  3  1  1
  3.704846004934e-01    3  3  2  2
  4.254688410901e-01    3  3  3  3
  9.635010759796e-02    4  1  4  1
  2.749212027971e-02    4  2  4  2
  2.749212027971e-02    4  3  4  3
  3.886547125227e-01    4  4  1  1
  3.704846005440e-01    4  4  2  2
  3.704846005440e-01    4  4  3  3
  4.254688411167e-01    4  4  4  4
 -2.725351215373e+00    1  1  0  0
 -2.462319177794e+00    2  2  0  0
 -2.462319177794e+00    3  3  0  0
 -2.462308357093e+00    4  4  0  0
  -6840.412180412699   0  0  0  0
