[Molden Format]
made by pyscf v[1.5b]
[Atoms] (AU)
C   1   6    -2.65075662944990     0.00000000000000     0.00000000000000
H   2   1    -4.70596607074313     0.00000000000000     0.00000000000000
C   3   6    -1.32537831472495    -2.29562039886039     0.00000000000000
H   4   1    -2.35299248400219    -4.07549674380449     0.00000000000000
C   5   6     1.32537831472495    -2.29562039886039     0.00000000000000
H   6   1     2.35299248400219    -4.07549674380449     0.00000000000000
C   7   6     2.65075662944990     0.00000000000000     0.00000000000000
H   8   1     4.70596607074313     0.00000000000000     0.00000000000000
C   9   6     1.32537831472495     2.29562039886039     0.00000000000000
H   10   1     2.35299248400219     4.07549674380449     0.00000000000000
C   11   6    -1.32537831472495     2.29562039886039     0.00000000000000
H   12   1    -2.35299248400219     4.07549674380449     0.00000000000000
[GTO]
1 0
 s    8 1.00
                  6665  0.00069158396281299
                  1000  0.0053257961529341
                   228   0.027060721042034
                 64.71    0.10165684614077
                 21.06     0.2745748236174
                 7.495    0.44829431892377
                 2.797    0.28490261071525
                0.5215   0.015194859206082
 s    8 1.00
                  6665  -0.00029326965268655
                  1000  -0.0023180354739745
                   228  -0.011499786038565
                 64.71  -0.046826727009787
                 21.06   -0.12846616875047
                 7.495   -0.30126627246289
                 2.797   -0.25563070233011
                0.5215      1.093793361012
 s    1 1.00
                0.1596                   1
 p    3 1.00
                 9.439   0.056979251590039
                 2.002    0.31320721150073
                0.5456    0.76037674173753
 p    1 1.00
                0.1517                   1
 d    1 1.00
                  0.55                   1

2 0
 s    3 1.00
                 13.01   0.033498726389998
                 1.962    0.23480080117413
                0.4446     0.8136829578829
 s    1 1.00
                 0.122                   1
 p    1 1.00
                 0.727                   1

3 0
 s    8 1.00
                  6665  0.00069158396281299
                  1000  0.0053257961529341
                   228   0.027060721042034
                 64.71    0.10165684614077
                 21.06     0.2745748236174
                 7.495    0.44829431892377
                 2.797    0.28490261071525
                0.5215   0.015194859206082
 s    8 1.00
                  6665  -0.00029326965268655
                  1000  -0.0023180354739745
                   228  -0.011499786038565
                 64.71  -0.046826727009787
                 21.06   -0.12846616875047
                 7.495   -0.30126627246289
                 2.797   -0.25563070233011
                0.5215      1.093793361012
 s    1 1.00
                0.1596                   1
 p    3 1.00
                 9.439   0.056979251590039
                 2.002    0.31320721150073
                0.5456    0.76037674173753
 p    1 1.00
                0.1517                   1
 d    1 1.00
                  0.55                   1

4 0
 s    3 1.00
                 13.01   0.033498726389998
                 1.962    0.23480080117413
                0.4446     0.8136829578829
 s    1 1.00
                 0.122                   1
 p    1 1.00
                 0.727                   1

5 0
 s    8 1.00
                  6665  0.00069158396281299
                  1000  0.0053257961529341
                   228   0.027060721042034
                 64.71    0.10165684614077
                 21.06     0.2745748236174
                 7.495    0.44829431892377
                 2.797    0.28490261071525
                0.5215   0.015194859206082
 s    8 1.00
                  6665  -0.00029326965268655
                  1000  -0.0023180354739745
                   228  -0.011499786038565
                 64.71  -0.046826727009787
                 21.06   -0.12846616875047
                 7.495   -0.30126627246289
                 2.797   -0.25563070233011
                0.5215      1.093793361012
 s    1 1.00
                0.1596                   1
 p    3 1.00
                 9.439   0.056979251590039
                 2.002    0.31320721150073
                0.5456    0.76037674173753
 p    1 1.00
                0.1517                   1
 d    1 1.00
                  0.55                   1

6 0
 s    3 1.00
                 13.01   0.033498726389998
                 1.962    0.23480080117413
                0.4446     0.8136829578829
 s    1 1.00
                 0.122                   1
 p    1 1.00
                 0.727                   1

7 0
 s    8 1.00
                  6665  0.00069158396281299
                  1000  0.0053257961529341
                   228   0.027060721042034
                 64.71    0.10165684614077
                 21.06     0.2745748236174
                 7.495    0.44829431892377
                 2.797    0.28490261071525
                0.5215   0.015194859206082
 s    8 1.00
                  6665  -0.00029326965268655
                  1000  -0.0023180354739745
                   228  -0.011499786038565
                 64.71  -0.046826727009787
                 21.06   -0.12846616875047
                 7.495   -0.30126627246289
                 2.797   -0.25563070233011
                0.5215      1.093793361012
 s    1 1.00
                0.1596                   1
 p    3 1.00
                 9.439   0.056979251590039
                 2.002    0.31320721150073
                0.5456    0.76037674173753
 p    1 1.00
                0.1517                   1
 d    1 1.00
                  0.55                   1

8 0
 s    3 1.00
                 13.01   0.033498726389998
                 1.962    0.23480080117413
                0.4446     0.8136829578829
 s    1 1.00
                 0.122                   1
 p    1 1.00
                 0.727                   1

9 0
 s    8 1.00
                  6665  0.00069158396281299
                  1000  0.0053257961529341
                   228   0.027060721042034
                 64.71    0.10165684614077
                 21.06     0.2745748236174
                 7.495    0.44829431892377
                 2.797    0.28490261071525
                0.5215   0.015194859206082
 s    8 1.00
                  6665  -0.00029326965268655
                  1000  -0.0023180354739745
                   228  -0.011499786038565
                 64.71  -0.046826727009787
                 21.06   -0.12846616875047
                 7.495   -0.30126627246289
                 2.797   -0.25563070233011
                0.5215      1.093793361012
 s    1 1.00
                0.1596                   1
 p    3 1.00
                 9.439   0.056979251590039
                 2.002    0.31320721150073
                0.5456    0.76037674173753
 p    1 1.00
                0.1517                   1
 d    1 1.00
                  0.55                   1

10 0
 s    3 1.00
                 13.01   0.033498726389998
                 1.962    0.23480080117413
                0.4446     0.8136829578829
 s    1 1.00
                 0.122                   1
 p    1 1.00
                 0.727                   1

11 0
 s    8 1.00
                  6665  0.00069158396281299
                  1000  0.0053257961529341
                   228   0.027060721042034
                 64.71    0.10165684614077
                 21.06     0.2745748236174
                 7.495    0.44829431892377
                 2.797    0.28490261071525
                0.5215   0.015194859206082
 s    8 1.00
                  6665  -0.00029326965268655
                  1000  -0.0023180354739745
                   228  -0.011499786038565
                 64.71  -0.046826727009787
                 21.06   -0.12846616875047
                 7.495   -0.30126627246289
                 2.797   -0.25563070233011
                0.5215      1.093793361012
 s    1 1.00
                0.1596                   1
 p    3 1.00
                 9.439   0.056979251590039
                 2.002    0.31320721150073
                0.5456    0.76037674173753
 p    1 1.00
                0.1517                   1
 d    1 1.00
                  0.55                   1

12 0
 s    3 1.00
                 13.01   0.033498726389998
                 1.962    0.23480080117413
                0.4446     0.8136829578829
 s    1 1.00
                 0.122                   1
 p    1 1.00
                 0.727                   1

[5d]
[9g]


[MO]
 Sym= Ag
 Ene=     -11.2420396
 Spin= Alpha
 Occup=    2.00000
   1      0.40866374599475
   2    0.0014114794115378
   3    -0.0018381374109831
   4    -9.4417325991273e-05
   5                     0
   6                     0
   7    0.00023241354505933
   8                     0
   9                     0
  10    -6.0177612634673e-05
  11                     0
  12                     0
  13    9.4534665758937e-05
  14                     0
  15    -0.0001413604311395
  16    0.00068983938771595
  17    -0.00013806694065511
  18                     0
  19                     0
  20      0.40887982013482
  21    0.0014124649860525
  22    -0.0018405803031716
  23    -4.7225317430525e-05
  24    -8.1773532750721e-05
  25                     0
  26    0.00011604109357571
  27    0.00020067734171683
  28                     0
  29    -6.0358113425552e-05
  30                     0
  31                     0
  32    -4.7301680627952e-05
  33    8.1869092971369e-05
  34    -0.00014148677751537
  35    0.0006899088734428
  36    -6.9110005748311e-05
  37    -0.00011969553065789
  38                     0
  39      0.40887982013482
  40    0.0014124649860525
  41    -0.0018405803031716
  42    4.7225317430525e-05
  43    -8.1773532750721e-05
  44                     0
  45    -0.00011604109357571
  46    0.00020067734171683
  47                     0
  48    -6.0358113425552e-05
  49                     0
  50                     0
  51    -4.7301680627952e-05
  52    -8.1869092971369e-05
  53    -0.00014148677751537
  54    0.0006899088734428
  55    6.9110005748311e-05
  56    -0.00011969553065789
  57                     0
  58      0.40866374599475
  59    0.0014114794115378
  60    -0.0018381374109831
  61    9.4417325991273e-05
  62                     0
  63                     0
  64    -0.00023241354505933
  65                     0
  66                     0
  67    -6.0177612634673e-05
  68                     0
  69                     0
  70    9.4534665758937e-05
  71                     0
  72    -0.0001413604311395
  73    0.00068983938771595
  74    0.00013806694065511
  75                     0
  76                     0
  77      0.40887982013482
  78    0.0014124649860525
  79    -0.0018405803031716
  80    4.7225317430525e-05
  81    8.1773532750721e-05
  82                     0
  83    -0.00011604109357571
  84    -0.00020067734171683
  85                     0
  86    -6.0358113425552e-05
  87                     0
  88                     0
  89    -4.7301680627952e-05
  90    8.1869092971369e-05
  91    -0.00014148677751537
  92    0.0006899088734428
  93    6.9110005748311e-05
  94    0.00011969553065789
  95                     0
  96      0.40887982013482
  97    0.0014124649860525
  98    -0.0018405803031716
  99    -4.7225317430525e-05
 100    8.1773532750721e-05
 101                     0
 102    0.00011604109357571
 103    -0.00020067734171683
 104                     0
 105    -6.0358113425552e-05
 106                     0
 107                     0
 108    -4.7301680627952e-05
 109    -8.1869092971369e-05
 110    -0.00014148677751537
 111    0.0006899088734428
 112    -6.9110005748311e-05
 113    0.00011969553065789
 114                     0
 Sym= B2u
 Ene=     -11.2415077
 Spin= Alpha
 Occup=    2.00000
   1                     0
   2                     0
   3                     0
   4                     0
   5    4.5130640667195e-05
   6                     0
   7                     0
   8    -0.0015038479862114
   9                     0
  10                     0
  11                     0
  12                     0
  13                     0
  14    2.812789981188e-05
  15                     0
  16                     0
  17                     0
  18    1.3404921883255e-05
  19                     0
  20      0.50096117709343
  21    0.0021088296040785
  22    -0.0039754605784448
  23    -4.0782329320821e-05
  24    -2.5505699944672e-05
  25                     0
  26    0.0004931810452312
  27    -0.00064963490375934
  28                     0
  29    -5.9802445964192e-05
  30                     0
  31                     0
  32    -4.7046331707834e-05
  33    5.3357417146471e-05
  34    -0.00014414284359945
  35    0.00053125946876834
  36    -0.00011045510004598
  37    -0.00017790766886901
  38                     0
  39      0.50096117709343
  40    0.0021088296040785
  41    -0.0039754605784448
  42    4.0782329320821e-05
  43    -2.5505699944672e-05
  44                     0
  45    -0.0004931810452312
  46    -0.00064963490375934
  47                     0
  48    -5.9802445964192e-05
  49                     0
  50                     0
  51    -4.7046331707834e-05
  52    -5.3357417146471e-05
  53    -0.00014414284359945
  54    0.00053125946876834
  55    0.00011045510004598
  56    -0.00017790766886901
  57                     0
  58                     0
  59                     0
  60                     0
  61                     0
  62    4.5130640667195e-05
  63                     0
  64                     0
  65    -0.0015038479862114
  66                     0
  67                     0
  68                     0
  69                     0
  70                     0
  71    -2.812789981188e-05
  72                     0
  73                     0
  74                     0
  75    1.3404921883255e-05
  76                     0
  77     -0.50096117709343
  78    -0.0021088296040785
  79    0.0039754605784448
  80    -4.0782329320821e-05
  81    -2.5505699944672e-05
  82                     0
  83    0.0004931810452312
  84    -0.00064963490375934
  85                     0
  86    5.9802445964192e-05
  87                     0
  88                     0
  89    4.7046331707834e-05
  90    -5.3357417146471e-05
  91    0.00014414284359945
  92    -0.00053125946876834
  93    -0.00011045510004598
  94    -0.00017790766886901
  95                     0
  96     -0.50096117709343
  97    -0.0021088296040785
  98    0.0039754605784448
  99    4.0782329320821e-05
 100    -2.5505699944672e-05
 101                     0
 102    -0.0004931810452312
 103    -0.00064963490375934
 104                     0
 105    5.9802445964192e-05
 106                     0
 107                     0
 108    4.7046331707834e-05
 109    5.3357417146471e-05
 110    0.00014414284359945
 111    -0.00053125946876834
 112    0.00011045510004598
 113    -0.00017790766886901
 114                     0
 Sym= B3u
 Ene=    -11.24150711
 Spin= Alpha
 Occup=    2.00000
   1      0.57835920095109
   2    0.0024345666510028
   3    -0.0045885121417163
   4    -4.9052527197311e-05
   5                     0
   6                     0
   7    -0.00036416808546076
   8                     0
   9                     0
  10    -6.8925933238846e-05
  11                     0
  12                     0
  13    8.0504341286235e-05
  14                     0
  15    -0.00016635756012892
  16    0.00061352319091772
  17    -0.00024159799976474
  18                     0
  19                     0
  20      0.28933099044511
  21    0.0012180543330396
  22    -0.0022972052111786
  23    2.1584442548268e-05
  24    -4.0784745912611e-05
  25                     0
  26    -0.0012194685597296
  27    0.00049256059063378
  28                     0
  29    -3.4657776451898e-05
  30                     0
  31                     0
  32    9.5948388251753e-07
  33    4.7063543594919e-05
  34    -8.3308914588756e-05
  35    0.00030666403909301
  36    -5.0403283245809e-05
  37    -0.00011052217008189
  38                     0
  39     -0.28933099044511
  40    -0.0012180543330396
  41    0.0022972052111786
  42    2.1584442548268e-05
  43    4.0784745912611e-05
  44                     0
  45    -0.0012194685597296
  46    -0.00049256059063378
  47                     0
  48    3.4657776451898e-05
  49                     0
  50                     0
  51    -9.5948388251753e-07
  52    4.7063543594919e-05
  53    8.3308914588756e-05
  54    -0.00030666403909301
  55    -5.0403283245809e-05
  56    0.00011052217008189
  57                     0
  58     -0.57835920095109
  59    -0.0024345666510028
  60    0.0045885121417163
  61    -4.9052527197311e-05
  62                     0
  63                     0
  64    -0.00036416808546076
  65                     0
  66                     0
  67    6.8925933238846e-05
  68                     0
  69                     0
  70    -8.0504341286235e-05
  71                     0
  72    0.00016635756012892
  73    -0.00061352319091772
  74    -0.00024159799976474
  75                     0
  76                     0
  77     -0.28933099044511
  78    -0.0012180543330396
  79    0.0022972052111786
  80    2.1584442548268e-05
  81    -4.0784745912611e-05
  82                     0
  83    -0.0012194685597296
  84    0.00049256059063378
  85                     0
  86    3.4657776451898e-05
  87                     0
  88                     0
  89    -9.5948388251753e-07
  90    -4.7063543594919e-05
  91    8.3308914588756e-05
  92    -0.00030666403909301
  93    -5.0403283245809e-05
  94    -0.00011052217008189
  95                     0
  96      0.28933099044511
  97    0.0012180543330396
  98    -0.0022972052111786
  99    2.1584442548268e-05
 100    4.0784745912611e-05
 101                     0
 102    -0.0012194685597296
 103    -0.00049256059063378
 104                     0
 105    -3.4657776451898e-05
 106                     0
 107                     0
 108    9.5948388251753e-07
 109    -4.7063543594919e-05
 110    -8.3308914588756e-05
 111    0.00030666403909301
 112    -5.0403283245809e-05
 113    0.00011052217008189
 114                     0
 Sym= B1g
 Ene=    -11.24035787
 Spin= Alpha
 Occup=    2.00000
   1                     0
   2                     0
   3                     0
   4                     0
   5    5.5915076285637e-05
   6                     0
   7                     0
   8    -0.00070742337206782
   9                     0
  10                     0
  11                     0
  12                     0
  13                     0
  14    0.00014332319887357
  15                     0
  16                     0
  17                     0
  18    1.3893936135546e-05
  19                     0
  20       0.5012011160857
  21    0.0023122405911936
  22    -0.0056298502887222
  23    4.5916160952655e-06
  24    -4.7963652545572e-05
  25                     0
  26    -0.0009602870936913
  27    -0.00095582694660898
  28                     0
  29    -0.00043019523298663
  30                     0
  31                     0
  32    3.8185284263949e-05
  33    7.7190281765484e-05
  34    -0.00029815765880389
  35    0.00022536979482819
  36    -0.00016242278289395
  37    -0.00029522106299208
  38                     0
  39      -0.5012011160857
  40    -0.0023122405911936
  41    0.0056298502887222
  42    4.5916160952655e-06
  43    4.7963652545572e-05
  44                     0
  45    -0.0009602870936913
  46    0.00095582694660898
  47                     0
  48    0.00043019523298663
  49                     0
  50                     0
  51    -3.8185284263949e-05
  52    7.7190281765484e-05
  53    0.00029815765880389
  54    -0.00022536979482819
  55    -0.00016242278289395
  56    0.00029522106299208
  57                     0
  58                     0
  59                     0
  60                     0
  61                     0
  62    -5.5915076285637e-05
  63                     0
  64                     0
  65    0.00070742337206782
  66                     0
  67                     0
  68                     0
  69                     0
  70                     0
  71    0.00014332319887357
  72                     0
  73                     0
  74                     0
  75    -1.3893936135546e-05
  76                     0
  77       0.5012011160857
  78    0.0023122405911936
  79    -0.0056298502887222
  80    -4.5916160952655e-06
  81    4.7963652545572e-05
  82                     0
  83    0.0009602870936913
  84    0.00095582694660898
  85                     0
  86    -0.00043019523298663
  87                     0
  88                     0
  89    3.8185284263949e-05
  90    7.7190281765484e-05
  91    -0.00029815765880389
  92    0.00022536979482819
  93    0.00016242278289395
  94    0.00029522106299208
  95                     0
  96      -0.5012011160857
  97    -0.0023122405911936
  98    0.0056298502887222
  99    -4.5916160952655e-06
 100    -4.7963652545572e-05
 101                     0
 102    0.0009602870936913
 103    -0.00095582694660898
 104                     0
 105    0.00043019523298663
 106                     0
 107                     0
 108    -3.8185284263949e-05
 109    7.7190281765484e-05
 110    0.00029815765880389
 111    -0.00022536979482819
 112    0.00016242278289395
 113    -0.00029522106299208
 114                     0
 Sym= Ag
 Ene=    -11.24035728
 Spin= Alpha
 Occup=    2.00000
   1      0.57883894516426
   2    0.0026703215086843
   3    -0.0065012531713612
   4    -4.5344508462982e-05
   5                     0
   6                     0
   7    -0.0015101787157306
   8                     0
   9                     0
  10    -0.00049676642184083
  11                     0
  12                     0
  13    5.5176797114671e-05
  14                     0
  15    -0.00034433116091265
  16    0.0002604200673091
  17    -0.00038903089842593
  18                     0
  19                     0
  20     -0.28926683595396
  21    -0.0013346213272502
  22     0.003249934716235
  23    5.3253576211948e-05
  24    -4.6118320301721e-06
  25                     0
  26    -0.000152983461244
  27    0.00096032641480661
  28                     0
  29    0.00024835986481975
  30                     0
  31                     0
  32    0.00012127116123907
  33    3.8203278973253e-05
  34    0.00017210719537599
  35    -0.00012994915784718
  36    0.00010765416471962
  37    0.00016239422931172
  38                     0
  39     -0.28926683595396
  40    -0.0013346213272502
  41     0.003249934716235
  42    -5.3253576211948e-05
  43    -4.6118320301721e-06
  44                     0
  45     0.000152983461244
  46    0.00096032641480661
  47                     0
  48    0.00024835986481975
  49                     0
  50                     0
  51    0.00012127116123907
  52    -3.8203278973253e-05
  53    0.00017210719537599
  54    -0.00012994915784718
  55    -0.00010765416471962
  56    0.00016239422931172
  57                     0
  58      0.57883894516426
  59    0.0026703215086843
  60    -0.0065012531713612
  61    4.5344508462982e-05
  62                     0
  63                     0
  64    0.0015101787157306
  65                     0
  66                     0
  67    -0.00049676642184083
  68                     0
  69                     0
  70    5.5176797114671e-05
  71                     0
  72    -0.00034433116091265
  73    0.0002604200673091
  74    0.00038903089842593
  75                     0
  76                     0
  77     -0.28926683595396
  78    -0.0013346213272502
  79     0.003249934716235
  80    -5.3253576211948e-05
  81    4.6118320301721e-06
  82                     0
  83     0.000152983461244
  84    -0.00096032641480661
  85                     0
  86    0.00024835986481975
  87                     0
  88                     0
  89    0.00012127116123907
  90    3.8203278973253e-05
  91    0.00017210719537599
  92    -0.00012994915784718
  93    -0.00010765416471962
  94    -0.00016239422931172
  95                     0
  96     -0.28926683595396
  97    -0.0013346213272502
  98     0.003249934716235
  99    5.3253576211948e-05
 100    4.6118320301721e-06
 101                     0
 102    -0.000152983461244
 103    -0.00096032641480661
 104                     0
 105    0.00024835986481975
 106                     0
 107                     0
 108    0.00012127116123907
 109    -3.8203278973253e-05
 110    0.00017210719537599
 111    -0.00012994915784718
 112    0.00010765416471962
 113    -0.00016239422931172
 114                     0
 Sym= B3u
 Ene=    -11.23979765
 Spin= Alpha
 Occup=    2.00000
   1     -0.40953402178348
   2    -0.0020980385777631
   3    0.0077340612922374
   4    1.4379868721946e-05
   5                     0
   6                     0
   7    0.0027372643139795
   8                     0
   9                     0
  10    0.00054293156730331
  11                     0
  12                     0
  13    -9.4066057287061e-05
  14                     0
  15    0.00036570366738344
  16    0.00019100887938614
  17    0.0003248280333361
  18                     0
  19                     0
  20      0.40932010352105
  21    0.0020971197528646
  22    -0.0077323610567438
  23    -7.1859238373678e-06
  24    -1.2425848188753e-05
  25                     0
  26    -0.0013682840587977
  27    -0.002370578518271
  28                     0
  29    -0.00054290356691349
  30                     0
  31                     0
  32    -4.7021092680843e-05
  33    8.1430257737035e-05
  34    -0.00036563055940134
  35    -0.00019123468079405
  36    -0.0001623719799816
  37    -0.00028123047338031
  38                     0
  39     -0.40932010352105
  40    -0.0020971197528646
  41    0.0077323610567438
  42    -7.1859238373678e-06
  43    1.2425848188753e-05
  44                     0
  45    -0.0013682840587977
  46     0.002370578518271
  47                     0
  48    0.00054290356691349
  49                     0
  50                     0
  51    4.7021092680843e-05
  52    8.1430257737035e-05
  53    0.00036563055940134
  54    0.00019123468079405
  55    -0.0001623719799816
  56    0.00028123047338031
  57                     0
  58      0.40953402178348
  59    0.0020980385777631
  60    -0.0077340612922374
  61    1.4379868721946e-05
  62                     0
  63                     0
  64    0.0027372643139795
  65                     0
  66                     0
  67    -0.00054293156730331
  68                     0
  69                     0
  70    9.4066057287061e-05
  71                     0
  72    -0.00036570366738344
  73    -0.00019100887938614
  74    0.0003248280333361
  75                     0
  76                     0
  77     -0.40932010352105
  78    -0.0020971197528646
  79    0.0077323610567438
  80    -7.1859238373678e-06
  81    -1.2425848188753e-05
  82                     0
  83    -0.0013682840587977
  84    -0.002370578518271
  85                     0
  86    0.00054290356691349
  87                     0
  88                     0
  89    4.7021092680843e-05
  90    -8.1430257737035e-05
  91    0.00036563055940134
  92    0.00019123468079405
  93    -0.0001623719799816
  94    -0.00028123047338031
  95                     0
  96      0.40932010352105
  97    0.0020971197528646
  98    -0.0077323610567438
  99    -7.1859238373678e-06
 100    1.2425848188753e-05
 101                     0
 102    -0.0013682840587977
 103     0.002370578518271
 104                     0
 105    -0.00054290356691349
 106                     0
 107                     0
 108    -4.7021092680843e-05
 109    -8.1430257737035e-05
 110    -0.00036563055940134
 111    -0.00019123468079405
 112    -0.0001623719799816
 113    0.00028123047338031
 114                     0
 Sym= Ag
 Ene=    -1.143318468
 Spin= Alpha
 Occup=    2.00000
   1    -0.011478030836796
   2      0.17996163886167
   3      0.10088115633943
   4      0.06387994628158
   5                     0
   6                     0
   7     0.011994233370781
   8                     0
   9                     0
  10    -0.0090172864394638
  11                     0
  12                     0
  13    -0.005736368733628
  14                     0
  15     0.047550282686251
  16    0.00074151691250128
  17    0.0083957285961195
  18                     0
  19                     0
  20    -0.011477865194808
  21      0.17996127699077
  22       0.1008812823384
  23     0.031939852364605
  24     0.055322037054612
  25                     0
  26    0.0059968302255508
  27     0.010387077568388
  28                     0
  29    -0.0090173175131753
  30                     0
  31                     0
  32    0.0028681969883311
  33    -0.0049679155558447
  34     0.047549210711614
  35    0.00074137233324534
  36     0.004197817639527
  37    0.0072708180415724
  38                     0
  39    -0.011477865194808
  40      0.17996127699077
  41       0.1008812823384
  42    -0.031939852364605
  43     0.055322037054612
  44                     0
  45    -0.0059968302255508
  46     0.010387077568388
  47                     0
  48    -0.0090173175131753
  49                     0
  50                     0
  51    0.0028681969883311
  52    0.0049679155558447
  53     0.047549210711614
  54    0.00074137233324534
  55    -0.004197817639527
  56    0.0072708180415724
  57                     0
  58    -0.011478030836796
  59      0.17996163886167
  60      0.10088115633943
  61     -0.06387994628158
  62                     0
  63                     0
  64    -0.011994233370781
  65                     0
  66                     0
  67    -0.0090172864394638
  68                     0
  69                     0