[Molden Format]
made by pyscf v[1.5b]
[Atoms] (AU)
C   1   6    -2.65075662944990     0.00000000000000     0.00000000000000
H   2   1    -4.70596607074313     0.00000000000000     0.00000000000000
C   3   6    -1.32537831472495    -2.29562039886039     0.00000000000000
H   4   1    -2.35299248400219    -4.07549674380449     0.00000000000000
C   5   6     1.32537831472495    -2.29562039886039     0.00000000000000
H   6   1     2.35299248400219    -4.07549674380449     0.00000000000000
C   7   6     2.65075662944990     0.00000000000000     0.00000000000000
H   8   1     4.70596607074313     0.00000000000000     0.00000000000000
C   9   6     1.32537831472495     2.29562039886039     0.00000000000000
H   10   1     2.35299248400219     4.07549674380449     0.00000000000000
C   11   6    -1.32537831472495     2.29562039886039     0.00000000000000
H   12   1    -2.35299248400219     4.07549674380449     0.00000000000000
[GTO]
1 0
 s    8 1.00
                  6665  0.00069158396281299
                  1000  0.0053257961529341
                   228   0.027060721042034
                 64.71    0.10165684614077
                 21.06     0.2745748236174
                 7.495    0.44829431892377
                 2.797    0.28490261071525
                0.5215   0.015194859206082
 s    8 1.00
                  6665  -0.00029326965268655
                  1000  -0.0023180354739745
                   228  -0.011499786038565
                 64.71  -0.046826727009787
                 21.06   -0.12846616875047
                 7.495   -0.30126627246289
                 2.797   -0.25563070233011
                0.5215      1.093793361012
 s    1 1.00
                0.1596                   1
 p    3 1.00
                 9.439   0.056979251590039
                 2.002    0.31320721150073
                0.5456    0.76037674173753
 p    1 1.00
                0.1517                   1
 d    1 1.00
                  0.55                   1

2 0
 s    3 1.00
                 13.01   0.033498726389998
                 1.962    0.23480080117413
                0.4446     0.8136829578829
 s    1 1.00
                 0.122                   1
 p    1 1.00
                 0.727                   1

3 0
 s    8 1.00
                  6665  0.00069158396281299
                  1000  0.0053257961529341
                   228   0.027060721042034
                 64.71    0.10165684614077
                 21.06     0.2745748236174
                 7.495    0.44829431892377
                 2.797    0.28490261071525
                0.5215   0.015194859206082
 s    8 1.00
                  6665  -0.00029326965268655
                  1000  -0.0023180354739745
                   228  -0.011499786038565
                 64.71  -0.046826727009787
                 21.06   -0.12846616875047
                 7.495   -0.30126627246289
                 2.797   -0.25563070233011
                0.5215      1.093793361012
 s    1 1.00
                0.1596                   1
 p    3 1.00
                 9.439   0.056979251590039
                 2.002    0.31320721150073
                0.5456    0.76037674173753
 p    1 1.00
                0.1517                   1
 d    1 1.00
                  0.55                   1

4 0
 s    3 1.00
                 13.01   0.033498726389998
                 1.962    0.23480080117413
                0.4446     0.8136829578829
 s    1 1.00
                 0.122                   1
 p    1 1.00
                 0.727                   1

5 0
 s    8 1.00
                  6665  0.00069158396281299
                  1000  0.0053257961529341
                   228   0.027060721042034
                 64.71    0.10165684614077
                 21.06     0.2745748236174
                 7.495    0.44829431892377
                 2.797    0.28490261071525
                0.5215   0.015194859206082
 s    8 1.00
                  6665  -0.00029326965268655
                  1000  -0.0023180354739745
                   228  -0.011499786038565
                 64.71  -0.046826727009787
                 21.06   -0.12846616875047
                 7.495   -0.30126627246289
                 2.797   -0.25563070233011
                0.5215      1.093793361012
 s    1 1.00
                0.1596                   1
 p    3 1.00
                 9.439   0.056979251590039
                 2.002    0.31320721150073
                0.5456    0.76037674173753
 p    1 1.00
                0.1517                   1
 d    1 1.00
                  0.55                   1

6 0
 s    3 1.00
                 13.01   0.033498726389998
                 1.962    0.23480080117413
                0.4446     0.8136829578829
 s    1 1.00
                 0.122                   1
 p    1 1.00
                 0.727                   1

7 0
 s    8 1.00
                  6665  0.00069158396281299
                  1000  0.0053257961529341
                   228   0.027060721042034
                 64.71    0.10165684614077
                 21.06     0.2745748236174
                 7.495    0.44829431892377
                 2.797    0.28490261071525
                0.5215   0.015194859206082
 s    8 1.00
                  6665  -0.00029326965268655
                  1000  -0.0023180354739745
                   228  -0.011499786038565
                 64.71  -0.046826727009787
                 21.06   -0.12846616875047
                 7.495   -0.30126627246289
                 2.797   -0.25563070233011
                0.5215      1.093793361012
 s    1 1.00
                0.1596                   1
 p    3 1.00
                 9.439   0.056979251590039
                 2.002    0.31320721150073
                0.5456    0.76037674173753
 p    1 1.00
                0.1517                   1
 d    1 1.00
                  0.55                   1

8 0
 s    3 1.00
                 13.01   0.033498726389998
                 1.962    0.23480080117413
                0.4446     0.8136829578829
 s    1 1.00
                 0.122                   1
 p    1 1.00
                 0.727                   1

9 0
 s    8 1.00
                  6665  0.00069158396281299
                  1000  0.0053257961529341
                   228   0.027060721042034
                 64.71    0.10165684614077
                 21.06     0.2745748236174
                 7.495    0.44829431892377
                 2.797    0.28490261071525
                0.5215   0.015194859206082
 s    8 1.00
                  6665  -0.00029326965268655
                  1000  -0.0023180354739745
                   228  -0.011499786038565
                 64.71  -0.046826727009787
                 21.06   -0.12846616875047
                 7.495   -0.30126627246289
                 2.797   -0.25563070233011
                0.5215      1.093793361012
 s    1 1.00
                0.1596                   1
 p    3 1.00
                 9.439   0.056979251590039
                 2.002    0.31320721150073
                0.5456    0.76037674173753
 p    1 1.00
                0.1517                   1
 d    1 1.00
                  0.55                   1

10 0
 s    3 1.00
                 13.01   0.033498726389998
                 1.962    0.23480080117413
                0.4446     0.8136829578829
 s    1 1.00
                 0.122                   1
 p    1 1.00
                 0.727                   1

11 0
 s    8 1.00
                  6665  0.00069158396281299
                  1000  0.0053257961529341
                   228   0.027060721042034
                 64.71    0.10165684614077
                 21.06     0.2745748236174
                 7.495    0.44829431892377
                 2.797    0.28490261071525
                0.5215   0.015194859206082
 s    8 1.00
                  6665  -0.00029326965268655
                  1000  -0.0023180354739745
                   228  -0.011499786038565
                 64.71  -0.046826727009787
                 21.06   -0.12846616875047
                 7.495   -0.30126627246289
                 2.797   -0.25563070233011
                0.5215      1.093793361012
 s    1 1.00
                0.1596                   1
 p    3 1.00
                 9.439   0.056979251590039
                 2.002    0.31320721150073
                0.5456    0.76037674173753
 p    1 1.00
                0.1517                   1
 d    1 1.00
                  0.55                   1

12 0
 s    3 1.00
                 13.01   0.033498726389998
                 1.962    0.23480080117413
                0.4446     0.8136829578829
 s    1 1.00
                 0.122                   1
 p    1 1.00
                 0.727                   1

[5d]
[9g]


[MO]
 Sym= Ag
 Ene=     -11.2420396
 Spin= Alpha
 Occup=    2.00000
   1      0.40866374599763
   2    0.0014114794115487
   3    -0.0018381374109857
   4    -9.4417325992487e-05
   5                     0
   6                     0
   7    0.00023241354507146
   8                     0
   9                     0
  10    -6.017761263866e-05
  11                     0
  12                     0
  13    9.4534665760252e-05
  14                     0
  15    -0.00014136043114179
  16    0.00068983938772383
  17    -0.00013806694065823
  18                     0
  19                     0
  20      0.40887982013338
  21    0.0014124649860515
  22    -0.0018405803031731
  23    -4.7225317429065e-05
  24    -8.177353275133e-05
  25                     0
  26    0.00011604109357359
  27    0.00020067734171049
  28                     0
  29    -6.0358113423082e-05
  30                     0
  31                     0
  32    -4.7301680627272e-05
  33    8.1869092972276e-05
  34    -0.00014148677751533
  35    0.00068990887343955
  36    -6.9110005748407e-05
  37    -0.00011969553065734
  38                     0
  39      0.40887982013338
  40    0.0014124649860515
  41    -0.0018405803031731
  42    4.7225317429065e-05
  43    -8.177353275133e-05
  44                     0
  45    -0.00011604109357359
  46    0.00020067734171049
  47                     0
  48    -6.0358113423082e-05
  49                     0
  50                     0
  51    -4.7301680627272e-05
  52    -8.1869092972276e-05
  53    -0.00014148677751533
  54    0.00068990887343955
  55    6.9110005748407e-05
  56    -0.00011969553065734
  57                     0
  58      0.40866374599763
  59    0.0014114794115487
  60    -0.0018381374109857
  61    9.4417325992487e-05
  62                     0
  63                     0
  64    -0.00023241354507146
  65                     0
  66                     0
  67    -6.017761263866e-05
  68                     0
  69                     0
  70    9.4534665760252e-05
  71                     0
  72    -0.00014136043114179
  73    0.00068983938772383
  74    0.00013806694065823
  75                     0
  76                     0
  77      0.40887982013338
  78    0.0014124649860515
  79    -0.0018405803031731
  80    4.7225317429065e-05
  81    8.177353275133e-05
  82                     0
  83    -0.00011604109357359
  84    -0.00020067734171049
  85                     0
  86    -6.0358113423082e-05
  87                     0
  88                     0
  89    -4.7301680627272e-05
  90    8.1869092972276e-05
  91    -0.00014148677751533
  92    0.00068990887343955
  93    6.9110005748407e-05
  94    0.00011969553065734
  95                     0
  96      0.40887982013338
  97    0.0014124649860515
  98    -0.0018405803031731
  99    -4.7225317429065e-05
 100    8.177353275133e-05
 101                     0
 102    0.00011604109357359
 103    -0.00020067734171049
 104                     0
 105    -6.0358113423082e-05
 106                     0
 107                     0
 108    -4.7301680627272e-05
 109    -8.1869092972276e-05
 110    -0.00014148677751533
 111    0.00068990887343955
 112    -6.9110005748407e-05
 113    0.00011969553065734
 114                     0
 Sym= B2u
 Ene=     -11.2415077
 Spin= Alpha
 Occup=    2.00000
   1                     0
   2                     0
   3                     0
   4                     0
   5    4.5130640667552e-05
   6                     0
   7                     0
   8    -0.0015038479861835
   9                     0
  10                     0
  11                     0
  12                     0
  13                     0
  14    2.8127899815346e-05
  15                     0
  16                     0
  17                     0
  18    1.340492188215e-05
  19                     0
  20      0.50096117709343
  21    0.0021088296040842
  22    -0.0039754605784232
  23    -4.07823293202e-05
  24    -2.5505699943499e-05
  25                     0
  26    0.00049318104521561
  27    -0.00064963490375769
  28                     0
  29    -5.9802445964255e-05
  30                     0
  31                     0
  32    -4.7046331709827e-05
  33    5.3357417146327e-05
  34    -0.00014414284360357
  35    0.00053125946876624
  36    -0.00011045510004618
  37    -0.00017790766887053
  38                     0
  39      0.50096117709343
  40    0.0021088296040842
  41    -0.0039754605784232
  42     4.07823293202e-05
  43    -2.5505699943499e-05
  44                     0
  45    -0.00049318104521561
  46    -0.00064963490375769
  47                     0
  48    -5.9802445964255e-05
  49                     0
  50                     0
  51    -4.7046331709827e-05
  52    -5.3357417146327e-05
  53    -0.00014414284360357
  54    0.00053125946876624
  55    0.00011045510004618
  56    -0.00017790766887053
  57                     0
  58                     0
  59                     0
  60                     0
  61                     0
  62    4.5130640667552e-05
  63                     0
  64                     0
  65    -0.0015038479861835
  66                     0
  67                     0
  68                     0
  69                     0
  70                     0
  71    -2.8127899815346e-05
  72                     0
  73                     0
  74                     0
  75    1.340492188215e-05
  76                     0
  77     -0.50096117709343
  78    -0.0021088296040842
  79    0.0039754605784232
  80    -4.07823293202e-05
  81    -2.5505699943499e-05
  82                     0
  83    0.00049318104521561
  84    -0.00064963490375769
  85                     0
  86    5.9802445964255e-05
  87                     0
  88                     0
  89    4.7046331709827e-05
  90    -5.3357417146327e-05
  91    0.00014414284360357
  92    -0.00053125946876624
  93    -0.00011045510004618
  94    -0.00017790766887053
  95                     0
  96     -0.50096117709343
  97    -0.0021088296040842
  98    0.0039754605784232
  99     4.07823293202e-05
 100    -2.5505699943499e-05
 101                     0
 102    -0.00049318104521561
 103    -0.00064963490375769
 104                     0
 105    5.9802445964255e-05
 106                     0
 107                     0
 108    4.7046331709827e-05
 109    5.3357417146327e-05
 110    0.00014414284360357
 111    -0.00053125946876624
 112    0.00011045510004618
 113    -0.00017790766887053
 114                     0
 Sym= B3u
 Ene=    -11.24150711
 Spin= Alpha
 Occup=    2.00000
   1      0.57835920095368
   2    0.0024345666509988
   3    -0.0045885121414402
   4    -4.905252719591e-05
   5                     0
   6                     0
   7    -0.0003641680853207
   8                     0
   9                     0
  10    -6.8925933252734e-05
  11                     0
  12                     0
  13    8.0504341287628e-05
  14                     0
  15    -0.00016635756013498
  16    0.00061352319095278
  17    -0.00024159799977305
  18                     0
  19                     0
  20      0.28933099044253
  21     0.001218054333046
  22      -0.0022972052114
  23    2.1584442548501e-05
  24    -4.0784745911885e-05
  25                     0
  26    -0.0012194685597764
  27    0.00049256059048957
  28                     0
  29    -3.4657776438988e-05
  30                     0
  31                     0
  32    9.5948388487447e-07
  33    4.7063543595327e-05
  34    -8.3308914589708e-05
  35    0.00030666403905477
  36    -5.0403283243748e-05
  37    -0.00011052217007502
  38                     0
  39     -0.28933099044253
  40    -0.001218054333046
  41       0.0022972052114
  42    2.1584442548501e-05
  43    4.0784745911885e-05
  44                     0
  45    -0.0012194685597764
  46    -0.00049256059048957
  47                     0
  48    3.4657776438988e-05
  49                     0
  50                     0
  51    -9.5948388487447e-07
  52    4.7063543595327e-05
  53    8.3308914589708e-05
  54    -0.00030666403905477
  55    -5.0403283243748e-05
  56    0.00011052217007502
  57                     0
  58     -0.57835920095368
  59    -0.0024345666509988
  60    0.0045885121414402
  61    -4.905252719591e-05
  62                     0
  63                     0
  64    -0.0003641680853207
  65                     0
  66                     0
  67    6.8925933252734e-05
  68                     0
  69                     0
  70    -8.0504341287628e-05
  71                     0
  72    0.00016635756013498
  73    -0.00061352319095278
  74    -0.00024159799977305
  75                     0
  76                     0
  77     -0.28933099044253
  78    -0.001218054333046
  79       0.0022972052114
  80    2.1584442548501e-05
  81    -4.0784745911885e-05
  82                     0
  83    -0.0012194685597764
  84    0.00049256059048957
  85                     0
  86    3.4657776438988e-05
  87                     0
  88                     0
  89    -9.5948388487447e-07
  90    -4.7063543595327e-05
  91    8.3308914589708e-05
  92    -0.00030666403905477
  93    -5.0403283243748e-05
  94    -0.00011052217007502
  95                     0
  96      0.28933099044253
  97     0.001218054333046
  98      -0.0022972052114
  99    2.1584442548501e-05
 100    4.0784745911885e-05
 101                     0
 102    -0.0012194685597764
 103    -0.00049256059048957
 104                     0
 105    -3.4657776438988e-05
 106                     0
 107                     0
 108    9.5948388487447e-07
 109    -4.7063543595327e-05
 110    -8.3308914589708e-05
 111    0.00030666403905477
 112    -5.0403283243748e-05
 113    0.00011052217007502
 114                     0
 Sym= B1g
 Ene=    -11.24035787
 Spin= Alpha
 Occup=    2.00000
   1                     0
   2                     0
   3                     0
   4                     0
   5    5.5915076287146e-05
   6                     0
   7                     0
   8    -0.00070742337211874
   9                     0
  10                     0
  11                     0
  12                     0
  13                     0
  14    0.00014332319887551
  15                     0
  16                     0
  17                     0
  18    1.3893936137775e-05
  19                     0
  20      0.50120111608571
  21    0.0023122405911979
  22    -0.0056298502887165
  23    4.5916160948561e-06
  24    -4.7963652545593e-05
  25                     0
  26    -0.00096028709363635
  27    -0.00095582694662544
  28                     0
  29    -0.00043019523298778
  30                     0
  31                     0
  32    3.8185284265355e-05
  33    7.7190281765964e-05
  34    -0.00029815765880329
  35    0.00022536979483615
  36    -0.00016242278289655
  37    -0.0002952210629915
  38                     0
  39     -0.50120111608571
  40    -0.0023122405911979
  41    0.0056298502887165
  42    4.5916160948561e-06
  43    4.7963652545593e-05
  44                     0
  45    -0.00096028709363635
  46    0.00095582694662544
  47                     0
  48    0.00043019523298778
  49                     0
  50                     0
  51    -3.8185284265355e-05
  52    7.7190281765964e-05
  53    0.00029815765880329
  54    -0.00022536979483615
  55    -0.00016242278289655
  56    0.0002952210629915
  57                     0
  58                     0
  59                     0
  60                     0
  61                     0
  62    -5.5915076287146e-05
  63                     0
  64                     0
  65    0.00070742337211874
  66                     0
  67                     0
  68                     0
  69                     0
  70                     0
  71    0.00014332319887551
  72                     0
  73                     0
  74                     0
  75    -1.3893936137775e-05
  76                     0
  77      0.50120111608571
  78    0.0023122405911979
  79    -0.0056298502887165
  80    -4.5916160948561e-06
  81    4.7963652545593e-05
  82                     0
  83    0.00096028709363635
  84    0.00095582694662544
  85                     0
  86    -0.00043019523298778
  87                     0
  88                     0
  89    3.8185284265355e-05
  90    7.7190281765964e-05
  91    -0.00029815765880329
  92    0.00022536979483615
  93    0.00016242278289655
  94    0.0002952210629915
  95                     0
  96     -0.50120111608571
  97    -0.0023122405911979
  98    0.0056298502887165
  99    -4.5916160948561e-06
 100    -4.7963652545593e-05
 101                     0
 102    0.00096028709363635
 103    -0.00095582694662544
 104                     0
 105    0.00043019523298778
 106                     0
 107                     0
 108    -3.8185284265355e-05
 109    7.7190281765964e-05
 110    0.00029815765880329
 111    -0.00022536979483615
 112    0.00016242278289655
 113    -0.0002952210629915
 114                     0
 Sym= Ag
 Ene=    -11.24035728
 Spin= Alpha
 Occup=    2.00000
   1      0.57883894516223
   2    0.0026703215086692
   3    -0.0065012531712719
   4    -4.5344508463004e-05
   5                     0
   6                     0
   7    -0.0015101787156968
   8                     0
   9                     0
  10    -0.00049676642184636
  11                     0
  12                     0
  13    5.5176797114348e-05
  14                     0
  15    -0.00034433116091528
  16    0.00026042006731418
  17    -0.00038903089842788
  18                     0
  19                     0
  20     -0.28926683595599
  21    -0.001334621327255
  22    0.0032499347162066
  23    5.3253576214599e-05
  24    -4.6118320304483e-06
  25                     0
  26    -0.00015298346123939
  27    0.00096032641478131
  28                     0
  29    0.00024835986482275
  30                     0
  31                     0
  32    0.00012127116124173
  33    3.8203278974176e-05
  34    0.0001721071953782
  35    -0.00012994915785649
  36    0.00010765416471923
  37    0.00016239422931428
  38                     0
  39     -0.28926683595599
  40    -0.001334621327255
  41    0.0032499347162066
  42    -5.3253576214599e-05
  43    -4.6118320304483e-06
  44                     0
  45    0.00015298346123939
  46    0.00096032641478131
  47                     0
  48    0.00024835986482275
  49                     0
  50                     0
  51    0.00012127116124173
  52    -3.8203278974176e-05
  53    0.0001721071953782
  54    -0.00012994915785649
  55    -0.00010765416471923
  56    0.00016239422931428
  57                     0
  58      0.57883894516223
  59    0.0026703215086692
  60    -0.0065012531712719
  61    4.5344508463004e-05
  62                     0
  63                     0
  64    0.0015101787156968
  65                     0
  66                     0
  67    -0.00049676642184636
  68                     0
  69                     0
  70    5.5176797114348e-05
  71                     0
  72    -0.00034433116091528
  73    0.00026042006731418
  74    0.00038903089842788
  75                     0
  76                     0
  77     -0.28926683595599
  78    -0.001334621327255
  79    0.0032499347162066
  80    -5.3253576214599e-05
  81    4.6118320304483e-06
  82                     0
  83    0.00015298346123939
  84    -0.00096032641478131
  85                     0
  86    0.00024835986482275
  87                     0
  88                     0
  89    0.00012127116124173
  90    3.8203278974176e-05
  91    0.0001721071953782
  92    -0.00012994915785649
  93    -0.00010765416471923
  94    -0.00016239422931428
  95                     0
  96     -0.28926683595599
  97    -0.001334621327255
  98    0.0032499347162066
  99    5.3253576214599e-05
 100    4.6118320304483e-06
 101                     0
 102    -0.00015298346123939
 103    -0.00096032641478131
 104                     0
 105    0.00024835986482275
 106                     0
 107                     0
 108    0.00012127116124173
 109    -3.8203278974176e-05
 110    0.0001721071953782
 111    -0.00012994915785649
 112    0.00010765416471923
 113    -0.00016239422931428
 114                     0
 Sym= B3u
 Ene=    -11.23979765
 Spin= Alpha
 Occup=    2.00000
   1     -0.40953402177979
   2    -0.0020980385777185
   3    0.0077340612917206
   4    1.4379868721439e-05
   5                     0
   6                     0
   7    0.0027372643136932
   8                     0
   9                     0
  10    0.00054293156731976
  11                     0
  12                     0
  13    -9.4066057285425e-05
  14                     0
  15    0.00036570366737878
  16    0.00019100887932081
  17    0.00032482803334357
  18                     0
  19                     0
  20      0.40932010352287
  21    0.0020971197528467
  22    -0.007732361056277
  23    -7.1859238370497e-06
  24    -1.2425848189214e-05
  25                     0
  26    -0.0013682840586604
  27    -0.0023705785180173
  28                     0
  29    -0.00054290356693033
  30                     0
  31                     0
  32    -4.7021092679343e-05
  33    8.1430257736221e-05
  34    -0.00036563055939679
  35    -0.00019123468071659
  36    -0.00016237197998604
  37    -0.00028123047338825
  38                     0
  39     -0.40932010352287
  40    -0.0020971197528467
  41     0.007732361056277
  42    -7.1859238370497e-06
  43    1.2425848189214e-05
  44                     0
  45    -0.0013682840586604
  46    0.0023705785180173
  47                     0
  48    0.00054290356693033
  49                     0
  50                     0
  51    4.7021092679343e-05
  52    8.1430257736221e-05
  53    0.00036563055939679
  54    0.00019123468071659
  55    -0.00016237197998604
  56    0.00028123047338825
  57                     0
  58      0.40953402177979
  59    0.0020980385777185
  60    -0.0077340612917206
  61    1.4379868721439e-05
  62                     0
  63                     0
  64    0.0027372643136932
  65                     0
  66                     0
  67    -0.00054293156731976
  68                     0
  69                     0
  70    9.4066057285425e-05
  71                     0
  72    -0.00036570366737878
  73    -0.00019100887932081
  74    0.00032482803334357
  75                     0
  76                     0
  77     -0.40932010352287
  78    -0.0020971197528467
  79     0.007732361056277
  80    -7.1859238370497e-06
  81    -1.2425848189214e-05
  82                     0
  83    -0.0013682840586604
  84    -0.0023705785180173
  85                     0
  86    0.00054290356693033
  87                     0
  88                     0
  89    4.7021092679343e-05
  90    -8.1430257736221e-05
  91    0.00036563055939679
  92    0.00019123468071659
  93    -0.00016237197998604
  94    -0.00028123047338825
  95                     0
  96      0.40932010352287
  97    0.0020971197528467
  98    -0.007732361056277
  99    -7.1859238370497e-06
 100    1.2425848189214e-05
 101                     0
 102    -0.0013682840586604
 103    0.0023705785180173
 104                     0
 105    -0.00054290356693033
 106                     0
 107                     0
 108    -4.7021092679343e-05
 109    -8.1430257736221e-05
 110    -0.00036563055939679
 111    -0.00019123468071659
 112    -0.00016237197998604
 113    0.00028123047338825
 114                     0
 Sym= Ag
 Ene=    -1.143318468
 Spin= Alpha
 Occup=    2.00000
   1    -0.011478030836802
   2      0.17996163886166
   3      0.10088115633958
   4     0.063879946281578
   5                     0
   6                     0
   7     0.011994233370784
   8                     0
   9                     0
  10    -0.0090172864394711
  11                     0
  12                     0
  13    -0.0057363687336307
  14                     0
  15     0.047550282686239
  16    0.00074151691248331
  17    0.0083957285961149
  18                     0
  19                     0
  20    -0.011477865194793
  21       0.1799612769908
  22      0.10088128233828
  23     0.031939852364604
  24     0.055322037054609
  25                     0
  26    0.0059968302255978
  27     0.010387077568387
  28                     0
  29    -0.0090173175131677
  30                     0
  31                     0
  32    0.0028681969883347
  33    -0.0049679155558454
  34     0.047549210711625
  35    0.00074137233329067
  36    0.0041978176395268
  37    0.0072708180415788
  38                     0
  39    -0.011477865194793
  40       0.1799612769908
  41      0.10088128233828
  42    -0.031939852364604
  43     0.055322037054609
  44                     0
  45    -0.0059968302255978
  46     0.010387077568387
  47                     0
  48    -0.0090173175131677
  49                     0
  50                     0
  51    0.0028681969883347
  52    0.0049679155558454
  53     0.047549210711625
  54    0.00074137233329067
  55    -0.0041978176395268
  56    0.0072708180415788
  57                     0
  58    -0.011478030836802
  59      0.17996163886166
  60      0.10088115633958
  61    -0.063879946281578
  62                     0
  63                     0
  64    -0.011994233370784
  65                     0
  66                     0
  67    -0.0090172864394711
  68                     0
  69                     0