[Molden Format]
made by pyscf v[1.5b]
[Atoms] (AU)
C   1   6     0.00356436294530     1.34701758579664     6.89709840063787
C   2   6    -0.00553630521265     2.65388537779864     4.67402931845459
C   3   6    -0.00421459384190     1.35001622278172     2.30096330586520
C   4   6    -0.00360165314076    -1.34998030371327     2.30078657414226
C   5   6     0.00328408309957    -2.65402174257327     4.67374847793592
C   6   6     0.00806801880644    -1.34735974164107     6.89694068081993
C   7   6    -0.00417641833636     2.65246137230411     0.00011658629707
C   8   6    -0.00541643020542    -2.65233134562819    -0.00010068718367
C   9   6    -0.00400094981592    -1.34983411041567    -2.30101010906403
C   10   6    -0.00101925797520     1.35007861970066    -2.30083597552610
C   11   6     0.00307526465258     2.65389274360490    -4.67384931954271
H   12   1     0.00708985350747     4.73332857457041    -4.64802877283267
C   13   6     0.00663122815974     1.34711978842551    -6.89704005416657
C   14   6     0.00220551411136    -1.34715961881217    -6.89715407342060
C   15   6    -0.00261589171137    -2.65386727741807    -4.67389001911497
H   16   1    -0.00452133447405     4.73296492564165     0.00064371178047
H   17   1     0.00712382896171     2.34177701514840     8.72230927993470
H   18   1    -0.00821311093305     4.73328774335064     4.64844003053031
H   19   1     0.00304295606493    -4.73341850660287     4.64781050092836
H   20   1     0.01251334106082    -2.34132354272943     8.72257874752918
H   21   1    -0.00497352236857    -4.73283501072627     0.00032746969829
H   22   1     0.01112096363268     2.34155298041195    -8.72245629619317
H   23   1     0.00525623856194    -2.34152827738622    -8.72261824583715
H   24   1    -0.00592104322648    -4.73331132294117    -4.64782506234355
[GTO]
1 0
 s    8 1.00
                  6665  0.00069158396281299
                  1000  0.0053257961529341
                   228   0.027060721042034
                 64.71    0.10165684614077
                 21.06     0.2745748236174
                 7.495    0.44829431892377
                 2.797    0.28490261071525
                0.5215   0.015194859206082
 s    8 1.00
                  6665  -0.00029326965268655
                  1000  -0.0023180354739745
                   228  -0.011499786038565
                 64.71  -0.046826727009787
                 21.06   -0.12846616875047
                 7.495   -0.30126627246289
                 2.797   -0.25563070233011
                0.5215      1.093793361012
 s    1 1.00
                0.1596                   1
 p    3 1.00
                 9.439   0.056979251590039
                 2.002    0.31320721150073
                0.5456    0.76037674173753
 p    1 1.00
                0.1517                   1
 d    1 1.00
                  0.55                   1

2 0
 s    8 1.00
                  6665  0.00069158396281299
                  1000  0.0053257961529341
                   228   0.027060721042034
                 64.71    0.10165684614077
                 21.06     0.2745748236174
                 7.495    0.44829431892377
                 2.797    0.28490261071525
                0.5215   0.015194859206082
 s    8 1.00
                  6665  -0.00029326965268655
                  1000  -0.0023180354739745
                   228  -0.011499786038565
                 64.71  -0.046826727009787
                 21.06   -0.12846616875047
                 7.495   -0.30126627246289
                 2.797   -0.25563070233011
                0.5215      1.093793361012
 s    1 1.00
                0.1596                   1
 p    3 1.00
                 9.439   0.056979251590039
                 2.002    0.31320721150073
                0.5456    0.76037674173753
 p    1 1.00
                0.1517                   1
 d    1 1.00
                  0.55                   1

3 0
 s    8 1.00
                  6665  0.00069158396281299
                  1000  0.0053257961529341
                   228   0.027060721042034
                 64.71    0.10165684614077
                 21.06     0.2745748236174
                 7.495    0.44829431892377
                 2.797    0.28490261071525
                0.5215   0.015194859206082
 s    8 1.00
                  6665  -0.00029326965268655
                  1000  -0.0023180354739745
                   228  -0.011499786038565
                 64.71  -0.046826727009787
                 21.06   -0.12846616875047
                 7.495   -0.30126627246289
                 2.797   -0.25563070233011
                0.5215      1.093793361012
 s    1 1.00
                0.1596                   1
 p    3 1.00
                 9.439   0.056979251590039
                 2.002    0.31320721150073
                0.5456    0.76037674173753
 p    1 1.00
                0.1517                   1
 d    1 1.00
                  0.55                   1

4 0
 s    8 1.00
                  6665  0.00069158396281299
                  1000  0.0053257961529341
                   228   0.027060721042034
                 64.71    0.10165684614077
                 21.06     0.2745748236174
                 7.495    0.44829431892377
                 2.797    0.28490261071525
                0.5215   0.015194859206082
 s    8 1.00
                  6665  -0.00029326965268655
                  1000  -0.0023180354739745
                   228  -0.011499786038565
                 64.71  -0.046826727009787
                 21.06   -0.12846616875047
                 7.495   -0.30126627246289
                 2.797   -0.25563070233011
                0.5215      1.093793361012
 s    1 1.00
                0.1596                   1
 p    3 1.00
                 9.439   0.056979251590039
                 2.002    0.31320721150073
                0.5456    0.76037674173753
 p    1 1.00
                0.1517                   1
 d    1 1.00
                  0.55                   1

5 0
 s    8 1.00
                  6665  0.00069158396281299
                  1000  0.0053257961529341
                   228   0.027060721042034
                 64.71    0.10165684614077
                 21.06     0.2745748236174
                 7.495    0.44829431892377
                 2.797    0.28490261071525
                0.5215   0.015194859206082
 s    8 1.00
                  6665  -0.00029326965268655
                  1000  -0.0023180354739745
                   228  -0.011499786038565
                 64.71  -0.046826727009787
                 21.06   -0.12846616875047
                 7.495   -0.30126627246289
                 2.797   -0.25563070233011
                0.5215      1.093793361012
 s    1 1.00
                0.1596                   1
 p    3 1.00
                 9.439   0.056979251590039
                 2.002    0.31320721150073
                0.5456    0.76037674173753
 p    1 1.00
                0.1517                   1
 d    1 1.00
                  0.55                   1

6 0
 s    8 1.00
                  6665  0.00069158396281299
                  1000  0.0053257961529341
                   228   0.027060721042034
                 64.71    0.10165684614077
                 21.06     0.2745748236174
                 7.495    0.44829431892377
                 2.797    0.28490261071525
                0.5215   0.015194859206082
 s    8 1.00
                  6665  -0.00029326965268655
                  1000  -0.0023180354739745
                   228  -0.011499786038565
                 64.71  -0.046826727009787
                 21.06   -0.12846616875047
                 7.495   -0.30126627246289
                 2.797   -0.25563070233011
                0.5215      1.093793361012
 s    1 1.00
                0.1596                   1
 p    3 1.00
                 9.439   0.056979251590039
                 2.002    0.31320721150073
                0.5456    0.76037674173753
 p    1 1.00
                0.1517                   1
 d    1 1.00
                  0.55                   1

7 0
 s    8 1.00
                  6665  0.00069158396281299
                  1000  0.0053257961529341
                   228   0.027060721042034
                 64.71    0.10165684614077
                 21.06     0.2745748236174
                 7.495    0.44829431892377
                 2.797    0.28490261071525
                0.5215   0.015194859206082
 s    8 1.00
                  6665  -0.00029326965268655
                  1000  -0.0023180354739745
                   228  -0.011499786038565
                 64.71  -0.046826727009787
                 21.06   -0.12846616875047
                 7.495   -0.30126627246289
                 2.797   -0.25563070233011
                0.5215      1.093793361012
 s    1 1.00
                0.1596                   1
 p    3 1.00
                 9.439   0.056979251590039
                 2.002    0.31320721150073
                0.5456    0.76037674173753
 p    1 1.00
                0.1517                   1
 d    1 1.00
                  0.55                   1

8 0
 s    8 1.00
                  6665  0.00069158396281299
                  1000  0.0053257961529341
                   228   0.027060721042034
                 64.71    0.10165684614077
                 21.06     0.2745748236174
                 7.495    0.44829431892377
                 2.797    0.28490261071525
                0.5215   0.015194859206082
 s    8 1.00
                  6665  -0.00029326965268655
                  1000  -0.0023180354739745
                   228  -0.011499786038565
                 64.71  -0.046826727009787
                 21.06   -0.12846616875047
                 7.495   -0.30126627246289
                 2.797   -0.25563070233011
                0.5215      1.093793361012
 s    1 1.00
                0.1596                   1
 p    3 1.00
                 9.439   0.056979251590039
                 2.002    0.31320721150073
                0.5456    0.76037674173753
 p    1 1.00
                0.1517                   1
 d    1 1.00
                  0.55                   1

9 0
 s    8 1.00
                  6665  0.00069158396281299
                  1000  0.0053257961529341
                   228   0.027060721042034
                 64.71    0.10165684614077
                 21.06     0.2745748236174
                 7.495    0.44829431892377
                 2.797    0.28490261071525
                0.5215   0.015194859206082
 s    8 1.00
                  6665  -0.00029326965268655
                  1000  -0.0023180354739745
                   228  -0.011499786038565
                 64.71  -0.046826727009787
                 21.06   -0.12846616875047
                 7.495   -0.30126627246289
                 2.797   -0.25563070233011
                0.5215      1.093793361012
 s    1 1.00
                0.1596                   1
 p    3 1.00
                 9.439   0.056979251590039
                 2.002    0.31320721150073
                0.5456    0.76037674173753
 p    1 1.00
                0.1517                   1
 d    1 1.00
                  0.55                   1

10 0
 s    8 1.00
                  6665  0.00069158396281299
                  1000  0.0053257961529341
                   228   0.027060721042034
                 64.71    0.10165684614077
                 21.06     0.2745748236174
                 7.495    0.44829431892377
                 2.797    0.28490261071525
                0.5215   0.015194859206082
 s    8 1.00
                  6665  -0.00029326965268655
                  1000  -0.0023180354739745
                   228  -0.011499786038565
                 64.71  -0.046826727009787
                 21.06   -0.12846616875047
                 7.495   -0.30126627246289
                 2.797   -0.25563070233011
                0.5215      1.093793361012
 s    1 1.00
                0.1596                   1
 p    3 1.00
                 9.439   0.056979251590039
                 2.002    0.31320721150073
                0.5456    0.76037674173753
 p    1 1.00
                0.1517                   1
 d    1 1.00
                  0.55                   1

11 0
 s    8 1.00
                  6665  0.00069158396281299
                  1000  0.0053257961529341
                   228   0.027060721042034
                 64.71    0.10165684614077
                 21.06     0.2745748236174
                 7.495    0.44829431892377
                 2.797    0.28490261071525
                0.5215   0.015194859206082
 s    8 1.00
                  6665  -0.00029326965268655
                  1000  -0.0023180354739745
                   228  -0.011499786038565
                 64.71  -0.046826727009787
                 21.06   -0.12846616875047
                 7.495   -0.30126627246289
                 2.797   -0.25563070233011
                0.5215      1.093793361012
 s    1 1.00
                0.1596                   1
 p    3 1.00
                 9.439   0.056979251590039
                 2.002    0.31320721150073
                0.5456    0.76037674173753
 p    1 1.00
                0.1517                   1
 d    1 1.00
                  0.55                   1

12 0
 s    3 1.00
                 13.01   0.033498726389998
                 1.962    0.23480080117413
                0.4446     0.8136829578829
 s    1 1.00
                 0.122                   1
 p    1 1.00
                 0.727                   1

13 0
 s    8 1.00
                  6665  0.00069158396281299
                  1000  0.0053257961529341
                   228   0.027060721042034
                 64.71    0.10165684614077
                 21.06     0.2745748236174
                 7.495    0.44829431892377
                 2.797    0.28490261071525
                0.5215   0.015194859206082
 s    8 1.00
                  6665  -0.00029326965268655
                  1000  -0.0023180354739745
                   228  -0.011499786038565
                 64.71  -0.046826727009787
                 21.06   -0.12846616875047
                 7.495   -0.30126627246289
                 2.797   -0.25563070233011
                0.5215      1.093793361012
 s    1 1.00
                0.1596                   1
 p    3 1.00
                 9.439   0.056979251590039
                 2.002    0.31320721150073
                0.5456    0.76037674173753
 p    1 1.00
                0.1517                   1
 d    1 1.00
                  0.55                   1

14 0
 s    8 1.00
                  6665  0.00069158396281299
                  1000  0.0053257961529341
                   228   0.027060721042034
                 64.71    0.10165684614077
                 21.06     0.2745748236174
                 7.495    0.44829431892377
                 2.797    0.28490261071525
                0.5215   0.015194859206082
 s    8 1.00
                  6665  -0.00029326965268655
                  1000  -0.0023180354739745
                   228  -0.011499786038565
                 64.71  -0.046826727009787
                 21.06   -0.12846616875047
                 7.495   -0.30126627246289
                 2.797   -0.25563070233011
                0.5215      1.093793361012
 s    1 1.00
                0.1596                   1
 p    3 1.00
                 9.439   0.056979251590039
                 2.002    0.31320721150073
                0.5456    0.76037674173753
 p    1 1.00
                0.1517                   1
 d    1 1.00
                  0.55                   1

15 0
 s    8 1.00
                  6665  0.00069158396281299
                  1000  0.0053257961529341
                   228   0.027060721042034
                 64.71    0.10165684614077
                 21.06     0.2745748236174
                 7.495    0.44829431892377
                 2.797    0.28490261071525
                0.5215   0.015194859206082
 s    8 1.00
                  6665  -0.00029326965268655
                  1000  -0.0023180354739745
                   228  -0.011499786038565
                 64.71  -0.046826727009787
                 21.06   -0.12846616875047
                 7.495   -0.30126627246289
                 2.797   -0.25563070233011
                0.5215      1.093793361012
 s    1 1.00
                0.1596                   1
 p    3 1.00
                 9.439   0.056979251590039
                 2.002    0.31320721150073
                0.5456    0.76037674173753
 p    1 1.00
                0.1517                   1
 d    1 1.00
                  0.55                   1

16 0
 s    3 1.00
                 13.01   0.033498726389998
                 1.962    0.23480080117413
                0.4446     0.8136829578829
 s    1 1.00
                 0.122                   1
 p    1 1.00
                 0.727                   1

17 0
 s    3 1.00
                 13.01   0.033498726389998
                 1.962    0.23480080117413
                0.4446     0.8136829578829
 s    1 1.00
                 0.122                   1
 p    1 1.00
                 0.727                   1

18 0
 s    3 1.00
                 13.01   0.033498726389998
                 1.962    0.23480080117413
                0.4446     0.8136829578829
 s    1 1.00
                 0.122                   1
 p    1 1.00
                 0.727                   1

19 0
 s    3 1.00
                 13.01   0.033498726389998
                 1.962    0.23480080117413
                0.4446     0.8136829578829
 s    1 1.00
                 0.122                   1
 p    1 1.00
                 0.727                   1

20 0
 s    3 1.00
                 13.01   0.033498726389998
                 1.962    0.23480080117413
                0.4446     0.8136829578829
 s    1 1.00
                 0.122                   1
 p    1 1.00
                 0.727                   1

21 0
 s    3 1.00
                 13.01   0.033498726389998
                 1.962    0.23480080117413
                0.4446     0.8136829578829
 s    1 1.00
                 0.122                   1
 p    1 1.00
                 0.727                   1

22 0
 s    3 1.00
                 13.01   0.033498726389998
                 1.962    0.23480080117413
                0.4446     0.8136829578829
 s    1 1.00
                 0.122                   1
 p    1 1.00
                 0.727                   1

23 0
 s    3 1.00
                 13.01   0.033498726389998
                 1.962    0.23480080117413
                0.4446     0.8136829578829
 s    1 1.00
                 0.122                   1
 p    1 1.00
                 0.727                   1

24 0
 s    3 1.00
                 13.01   0.033498726389998
                 1.962    0.23480080117413
                0.4446     0.8136829578829
 s    1 1.00
                 0.122                   1
 p    1 1.00
                 0.727                   1

[5d]
[9g]


[MO]
 Sym= A
 Ene=    -11.24881421
 Spin= Alpha
 Occup=    2.00000
   1    0.0050593528341588
   2    -0.0001214793829377
   3    0.00084096672993343
   4    -7.0461736959475e-08
   5    1.0182010163265e-07
   6    3.044051613166e-05
   7    -3.9314029491242e-07
   8    0.00035235155944408
   9    -0.00023983555985383
  10    3.5548426572714e-05
  11     1.60159592264e-08
  12    4.3751882702831e-06
  13    -3.6712304811369e-05
  14    -2.2466974350899e-07
  15     0.046452257617984
  16    -1.9302379934683e-05
  17    0.00078390632314475
  18    1.897916168992e-07
  19    2.4983983826141e-05
  20    3.3488916558617e-05
  21    -3.4967417343989e-06
  22    -0.00016782361284678
  23    -0.0013180838991512
  24    -3.4177099465916e-05
  25    8.3240836560137e-08
  26    -8.3766450905904e-05
  27    5.9853277744172e-05
  28    3.4432174116173e-07
  29      0.48183678147152
  30    0.0020387185532121
  31    -0.0047095458808088
  32    -6.9225131243813e-07
  33    5.7265955335596e-06
  34    4.9512123487155e-05
  35    5.2961297426193e-06
  36    -0.00091959462524142
  37    -6.0889075029802e-05
  38    0.00011216235551508
  39    -3.0638121527134e-07
  40    -1.6043175788982e-07
  41    1.8241800652795e-05
  42    -9.3147828638282e-08
  43       0.4811111756552
  44     0.002034940708513
  45    -0.004694626057114
  46    5.7984410515781e-07
  47    -5.8437778834144e-06
  48    4.9467033548794e-05
  49    -5.64834368615e-06
  50    0.00092627264285356
  51    -5.7050738881846e-05
  52    0.00011176753467142
  53    3.6933224935211e-07
  54    1.397543230612e-07
  55    1.8585440913574e-05
  56    -6.7145459138677e-08
  57     0.046482979276563
  58    -1.8849146927781e-05
  59    0.00077898386393732
  60    4.7582038162425e-08
  61    -2.4946168787489e-05
  62    3.3470882436773e-05
  63    -1.7040695039509e-06
  64    0.00016461005944109
  65    -0.0013184408316573
  66    -3.3987616392276e-05
  67    -5.4518170010645e-07
  68    8.3628512288178e-05
  69    5.9701290923436e-05
  70    6.1224149760628e-07
  71    0.0050692729395122
  72    -0.00012158850915028
  73    0.0008447188517849
  74    -2.4009731831263e-08
  75    -1.2554608986308e-07
  76    3.0435775553766e-05
  77    -9.395612937025e-07
  78    -0.00035163002771247
  79    -0.00024161576493085
  80    3.5528602631861e-05
  81    2.7904572507492e-07
  82    -4.3926740028946e-06
  83    -3.6722729298407e-05
  84    -4.0707724157605e-08
  85      0.13521127852275
  86    0.00013775017701602
  87    0.0022234894204335
  88    6.1857081755431e-08
  89    6.1536220552099e-05
  90    9.5314487386211e-07
  91    -1.9101595633405e-06
  92    -0.0007568125952134
  93    -3.8358784441583e-05
  94    -2.8356781973442e-05
  95    4.2796352186054e-08
  96    -1.2133387450602e-06
  97    0.00012378514695325
  98    3.8608072264564e-07
  99       0.1349690757483
 100    0.00013703728455359
 101    0.0022274295718539
 102    3.7538182558775e-08
 103    -6.1410630287088e-05
 104    8.712337654895e-07
 105    3.0216855916583e-06
 106    0.00075471088938032
 107    -3.8404866283913e-05
 108    -2.785366024234e-05
 109    1.1161429651424e-07
 110    1.1557042464743e-06
 111    0.00012321071329275
 112    3.3306480285988e-07
 113      0.49651854427276
 114    0.0021054371734389
 115    -0.0048640461427509
 116    3.3876726214442e-07
 117    -6.621537573932e-06
 118    -4.9391877942361e-05
 119    -2.6414204293098e-06
 120    0.00096711131484001
 121    4.7720234080207e-05
 122    0.00011369235137057
 123    7.1359797656365e-08
 124    -4.3789362058173e-08
 125    1.9973533200149e-05
 126    -3.2993078713985e-07
 127      0.49780150837057
 128    0.0021119515536506
 129    -0.0048867245431624
 130    -6.4151574638573e-07
 131    6.4235868116708e-06
 132    -4.943044185836e-05
 133    3.3015971455008e-06
 134    -0.00095577300176623
 135    4.8857307511061e-05
 136    0.00011435316723029
 137    -2.5909297174638e-07
 138     3.25763554312e-07
 139    1.9420043132545e-05
 140    -2.9694067219552e-07
 141     0.048039852360539
 142    -1.7206277631372e-05
 143    0.00081329853200271
 144    9.007101096796e-08
 145    2.5972392020526e-05
 146    -3.3323897973461e-05
 147    -3.8557420645459e-06
 148    -0.0001780513420565
 149    0.0013368854865038
 150    -3.5984458219873e-05
 151    9.9377377781532e-08
 152    8.6798246275892e-05
 153    6.2283927765129e-05
 154    2.7633337574171e-08
 155    -4.044674891824e-05
 156    0.00013261126939871
 157    1.3496509460119e-07
 158    -3.1633606683111e-05
 159    -4.8594686177532e-05
 160    0.0052362568356864
 161    -0.00012306638096838
 162    0.00084508832074004
 163    1.3517104084782e-08
 164    -2.5127648719326e-07
 165    -3.1618358485985e-05
 166    4.2247972073569e-07
 167    0.00035645588074187
 168    0.00023968833904028
 169    3.6128792816782e-05
 170    -5.003669884476e-08
 171    -4.7130967679109e-06
 172    -3.7415427071467e-05
 173    1.9565966081255e-08
 174     0.005233060712104
 175    -0.00012313441838897
 176    0.00084778180815005
 177    3.5210106095204e-08
 178    2.2876707396736e-07
 179    -3.1587539845177e-05
 180    -1.1377511233826e-06
 181    -0.00035625809337103
 182    0.00024074256584584
 183    3.6016551512157e-05
 184    -1.7785527238362e-07
 185    4.6388098867152e-06
 186    -3.7397309593612e-05
 187    4.0038822763437e-08
 188     0.047977736544118
 189    -1.7282291948926e-05
 190    0.0008116779468211
 191    8.0452478628368e-08
 192    -2.5946858138106e-05
 193    -3.3266803691284e-05
 194    -6.3265898125124e-07
 195    0.00017526005845499
 196    0.0013382620204451
 197    -3.5744943809004e-05
 198    2.1529311493592e-07
 199    -8.651645437243e-05
 200    6.1872597258207e-05
 201    1.7690268088388e-07
 202    -1.2879572987069e-05
 203    0.00029914222139422
 204    2.2120338605232e-07
 205    -3.7848345975362e-05
 206    1.1294653910202e-06
 207    -6.3457887312105e-05
 208    5.280768948602e-05
 209    -2.7978930115946e-08
 210    -8.2602158999504e-06
 211    6.4818390175597e-06
 212    -4.0529629836542e-05
 213    0.00012948502133959
 214    3.3895879748158e-07
 215    -3.0974441828634e-05
 216    4.7860208046051e-05
 217    -4.0719943584165e-05
 218    0.00012874189785357
 219    1.6472093276899e-08
 220    3.0953540155935e-05
 221    4.7811634771035e-05
 222    -6.3420552588602e-05
 223    5.320055766004e-05
 224    1.3515114277203e-08
 225    8.2885528926167e-06
 226    6.5586277358902e-06
 227    -1.3271350915019e-05
 228    0.00029804942851235
 229    -1.5877927472419e-07
 230    3.7735569615454e-05
 231    1.1248503376803e-06
 232    -6.4404295792742e-05
 233    5.3299994495387e-05
 234    -3.5120731749247e-08
 235    -8.1580827899241e-06
 236    -6.4776859971711e-06
 237    -6.4351158471998e-05
 238    5.3475514035932e-05
 239    7.2989148736863e-08
 240    8.1794019334991e-06
 241    -6.4629939026837e-06
 242    -4.0802179437781e-05
 243    0.00013177215910738
 244    8.3074284713621e-08
 245    3.1532811049874e-05
 246    -4.8532450979398e-05
 Sym= A
 Ene=    -11.24868341
 Spin= Alpha
 Occup=    2.00000
   1    0.0056999849967766
   2    -5.2375280292074e-05
   3    0.00012322625696315
   4    -1.5571824527554e-07
   5    -1.1173405944869e-05
   6    3.8353352672433e-05
   7    1.234396198438e-06
   8    0.00014233572524336
   9    1.2247993402664e-05
  10    1.7198286152262e-05
  11    -1.2957568540326e-07
  12    9.4575553916667e-06
  13    -2.2840645586057e-05
  14    -2.3364989799953e-07
  15     0.050323422130847
  16    6.0815008515643e-05
  17    0.00099007967976062
  18    1.9816391704395e-07
  19    3.2976257873005e-05
  20    -5.2527985181735e-06
  21    -1.4032942059992e-06
  22    -0.00033616416322271
  23    -0.000626249862923
  24    -5.786081564715e-05
  25    1.8223598393183e-07
  26    -9.8312919612757e-05
  27    7.3558772431944e-05
  28    1.4617209902602e-07
  29      0.50648770912988
  30    0.0023154119251809
  31    -0.0055715766217732
  32    -3.2126952892904e-07
  33    2.2946008819993e-05
  34    2.4852978920544e-06
  35    2.3636408138959e-06
  36    -0.0012290396936561
  37    0.00033468706807701
  38    6.8733752104623e-05
  39    -1.0970074736337e-07
  40    -2.5107377605348e-06
  41    4.1635829667196e-05
  42    -1.4642409149989e-07
  43      0.50584400374883
  44    0.0023123568893057
  45    -0.0055642653369445
  46    6.5109758841031e-07
  47    -2.3056432856845e-05
  48    2.4525799169446e-06
  49    -3.3380158004267e-06
  50    0.0012330802191499
  51    0.00033664911954317
  52    6.8495704580805e-05
  53    4.4775381639725e-07
  54    2.6005504898544e-06
  55    4.2053505097187e-05
  56    -2.4031633873465e-07
  57     0.050371392649601
  58    6.1126239380995e-05
  59    0.00098863121164822
  60    -2.9213143708424e-07
  61    -3.2915272159521e-05
  62    -5.2995697784817e-06
  63    2.2642950507852e-07
  64    0.00033503119824053
  65    -0.00062666481414576
  66    -5.7587071881569e-05
  67    -5.1138275781486e-07
  68    9.8204782626427e-05
  69    7.3360975057712e-05
  70    5.7900110201055e-07
  71    0.0057128013604025
  72    -5.2357801809259e-05
  73    0.00012384772318459
  74    -9.3109091645549e-09
  75    1.1172330069339e-05
  76    3.8372218909426e-05
  77    -8.7904213558626e-07
  78    -0.0001425690901499
  79    1.2036321955327e-05
  80    1.716766895013e-05
  81    1.9692276693302e-07
  82    -9.4990989016311e-06
  83    -2.2774424473446e-05
  84    -4.5157136116108e-08
  85    0.0021557361910499
  86    2.4715577893491e-06
  87    3.2286739825963e-05
  88    -2.3276894019364e-07
  89    8.7415221936168e-07
  90    -5.8342332000509e-05
  91    -1.0984001846702e-06
  92    -1.006852457032e-05
  93    0.0024334187752933
  94    -2.4556436108449e-07
  95    -2.8986003508374e-07
  96    7.1465283805497e-05
  97    1.8881294007063e-06
  98    3.7557525674682e-09
  99    0.0022626284487772
 100    2.5590422194535e-06
 101    3.5037062853646e-05
 102    2.6639911386957e-07
 103    -9.5049761189309e-07
 104    -5.8111081856202e-05
 105    4.7000629007797e-08
 106    1.2271421984653e-05
 107    0.0024346046583098
 108    -4.6906107920376e-07
 109    2.6755680084642e-07
 110    -7.1191886627671e-05
 111    1.9683406107369e-06
 112    1.8707828757318e-07
 113     -0.49011946172614
 114    -0.0022454937697565
 115    0.0054073137773422
 116    -4.765429862408e-07
 117    2.2946845168102e-05
 118    7.5889007401252e-07
 119    1.9827718989062e-06
 120    -0.0012061101298002
 121    0.00033750146345943
 122    -6.4746597104461e-05
 123    -8.1353256797744e-08
 124    2.3564919438187e-06
 125    -4.1479013123399e-05
 126    3.1442868796443e-07
 127     -0.49146898101802
 128    -0.0022522234925725
 129     0.005428977168564
 130    3.2341568701949e-07
 131    -2.2736106738103e-05
 132    7.8915179181846e-07
 133    -2.4305177503904e-06
 134    0.0011967802127968
 135    0.00033936802628813
 136    -6.5269787930444e-05
 137    3.3913462063759e-07
 138    -2.6844572249148e-06
 139    -4.0817613225898e-05
 140    1.4459149057509e-07
 141    -0.048881567896461
 142    -6.1623973302694e-05