[Molden Format]
made by pyscf v[1.5b]
[Atoms] (AU)
Mn   1   25    -0.02423854681440    -0.00052532723304    -0.20633816450669
O   2   8    -2.08581314448718     1.93633417757838    -2.42290462465481
O   3   8    -0.81623125502526    -3.00667384454039    -1.96972106317250
N   4   7     1.36890212267571     3.06235418354965     1.45697741964281
N   5   7     2.45830071752025    -1.75513395764961     2.00988230663015
C   6   6    -2.43513638684416     4.31504007179403    -2.30193931647626
C   7   6    -1.33242055789623     6.01330922842984    -0.68110857773595
C   8   6     0.66800313034161     5.32814102727158     0.98399171044182
C   9   6     0.41147271104409    -5.09196114174190    -1.82599076218737
C   10   6     2.30194689144343    -5.71651414512127    -0.18179088047415
C   11   6     3.24663081581518    -4.01187523024485     1.68183724853289
C   12   6     3.66476731155602     2.55588700021413     2.90407424750633
C   13   6     3.46457143290920    -0.11432136352740     3.97890673851847
H   14   1     1.68337480699763     6.84862728234132     1.89722814698416
H   15   1     4.72889873101189    -4.69675665450329     2.90999070202363
H   16   1     5.26441794282247     2.66431172205778     1.63675069263506
H   17   1     2.17135893040887    -0.12333746040675     5.57519738382312
H   18   1     3.90011336261419     3.92483555043716     4.41312923347534
H   19   1     5.29005560582087    -0.77204190745426     4.63640186986607
H   20   1    -3.75910878652847     5.04306436205063    -3.67645493296596
H   21   1    -0.18637222156362    -6.50847255801550    -3.16800551630981
Cl   22   17     3.55683161587347     0.58559828788025    -3.13677195832785
O   23   8    -2.15334484230514    -0.32194887116134     1.75055744858983
H   24   1    -1.75975986037082     7.98444519531427    -0.88743099213128
H   25   1     3.15496938350279    -7.55019559525970    -0.30874633511892
[GTO]
1 0
 s    3 1.00
           1337.153266    0.15432896729619
           243.5641365    0.53532814228678
           65.91796062    0.44463454218902
 s    3 1.00
           102.0220021  -0.099967229198447
           23.70771923    0.39951282609379
           7.710486098    0.70011546888912
 s    3 1.00
           7.701960922   -0.22776350230648
           2.349343572    0.21754360440619
           0.906449787     0.9166769611261
 s    3 1.00
           0.670982286   -0.30884412140157
           0.247634663   0.019606411693751
           0.109358078     1.1310344416395
 p    3 1.00
           102.0220021    0.15591627500166
           23.70771923    0.60768371860648
           7.710486098    0.39195739310418
 p    3 1.00
           7.701960922  0.0049515111999368
           2.349343572    0.57776646909263
           0.906449787    0.48464603659381
 p    3 1.00
           0.670982286   -0.12154686002586
           0.247634663    0.57152276052157
           0.109358078    0.54989494721697
 d    3 1.00
           5.426950461    0.21976795078625
           1.655392868      0.655547362659
           0.638702032    0.28657325898208

2 0
 s    3 1.00
             130.70932    0.15432896872316
             23.808861    0.53532813557095
             6.4436083    0.44463453632131
 s    3 1.00
             5.0331513  -0.099967228656673
             1.1695961    0.39951282463148
              0.380389    0.70011546059208
 p    3 1.00
             5.0331513    0.15591626847816
             1.1695961    0.60768371406861
              0.380389    0.39195738617424

3 0
 s    3 1.00
             130.70932    0.15432896872316
             23.808861    0.53532813557095
             6.4436083    0.44463453632131
 s    3 1.00
             5.0331513  -0.099967228656673
             1.1695961    0.39951282463148
              0.380389    0.70011546059208
 p    3 1.00
             5.0331513    0.15591626847816
             1.1695961    0.60768371406861
              0.380389    0.39195738617424

4 0
 s    3 1.00
             99.106169    0.15432897032795
             18.052312    0.53532814113758
             4.8856602    0.44463454094486
 s    3 1.00
             3.7804559  -0.099967228443697
             0.8784966    0.39951282378033
             0.2857144    0.70011545910051
 p    3 1.00
             3.7804559    0.15591626853622
             0.8784966    0.60768371429493
             0.2857144    0.39195738632021

5 0
 s    3 1.00
             99.106169    0.15432897032795
             18.052312    0.53532814113758
             4.8856602    0.44463454094486
 s    3 1.00
             3.7804559  -0.099967228443697
             0.8784966    0.39951282378033
             0.2857144    0.70011545910051
 p    3 1.00
             3.7804559    0.15591626853622
             0.8784966    0.60768371429493
             0.2857144    0.39195738632021

6 0
 s    3 1.00
             71.616837    0.15432897000916
             13.045096    0.53532814003178
             3.5305122     0.4446345400264
 s    3 1.00
             2.9412494  -0.099967230075964
             0.6834831    0.39951283030359
             0.2222899    0.70011547053201
 p    3 1.00
             2.9412494    0.15591627210511
             0.6834831    0.60768372820466
             0.2222899    0.39195739529202

7 0
 s    3 1.00
             71.616837    0.15432897000916
             13.045096    0.53532814003178
             3.5305122     0.4446345400264
 s    3 1.00
             2.9412494  -0.099967230075964
             0.6834831    0.39951283030359
             0.2222899    0.70011547053201
 p    3 1.00
             2.9412494    0.15591627210511
             0.6834831    0.60768372820466
             0.2222899    0.39195739529202

8 0
 s    3 1.00
             71.616837    0.15432897000916
             13.045096    0.53532814003178
             3.5305122     0.4446345400264
 s    3 1.00
             2.9412494  -0.099967230075964
             0.6834831    0.39951283030359
             0.2222899    0.70011547053201
 p    3 1.00
             2.9412494    0.15591627210511
             0.6834831    0.60768372820466
             0.2222899    0.39195739529202

9 0
 s    3 1.00
             71.616837    0.15432897000916
             13.045096    0.53532814003178
             3.5305122     0.4446345400264
 s    3 1.00
             2.9412494  -0.099967230075964
             0.6834831    0.39951283030359
             0.2222899    0.70011547053201
 p    3 1.00
             2.9412494    0.15591627210511
             0.6834831    0.60768372820466
             0.2222899    0.39195739529202

10 0
 s    3 1.00
             71.616837    0.15432897000916
             13.045096    0.53532814003178
             3.5305122     0.4446345400264
 s    3 1.00
             2.9412494  -0.099967230075964
             0.6834831    0.39951283030359
             0.2222899    0.70011547053201
 p    3 1.00
             2.9412494    0.15591627210511
             0.6834831    0.60768372820466
             0.2222899    0.39195739529202

11 0
 s    3 1.00
             71.616837    0.15432897000916
             13.045096    0.53532814003178
             3.5305122     0.4446345400264
 s    3 1.00
             2.9412494  -0.099967230075964
             0.6834831    0.39951283030359
             0.2222899    0.70011547053201
 p    3 1.00
             2.9412494    0.15591627210511
             0.6834831    0.60768372820466
             0.2222899    0.39195739529202

12 0
 s    3 1.00
             71.616837    0.15432897000916
             13.045096    0.53532814003178
             3.5305122     0.4446345400264
 s    3 1.00
             2.9412494  -0.099967230075964
             0.6834831    0.39951283030359
             0.2222899    0.70011547053201
 p    3 1.00
             2.9412494    0.15591627210511
             0.6834831    0.60768372820466
             0.2222899    0.39195739529202

13 0
 s    3 1.00
             71.616837    0.15432897000916
             13.045096    0.53532814003178
             3.5305122     0.4446345400264
 s    3 1.00
             2.9412494  -0.099967230075964
             0.6834831    0.39951283030359
             0.2222899    0.70011547053201
 p    3 1.00
             2.9412494    0.15591627210511
             0.6834831    0.60768372820466
             0.2222899    0.39195739529202

14 0
 s    3 1.00
            3.42525091    0.15432897070298
            0.62391373    0.53532814243847
             0.1688554    0.44463454202535

15 0
 s    3 1.00
            3.42525091    0.15432897070298
            0.62391373    0.53532814243847
             0.1688554    0.44463454202535

16 0
 s    3 1.00
            3.42525091    0.15432897070298
            0.62391373    0.53532814243847
             0.1688554    0.44463454202535

17 0
 s    3 1.00
            3.42525091    0.15432897070298
            0.62391373    0.53532814243847
             0.1688554    0.44463454202535

18 0
 s    3 1.00
            3.42525091    0.15432897070298
            0.62391373    0.53532814243847
             0.1688554    0.44463454202535

19 0
 s    3 1.00
            3.42525091    0.15432897070298
            0.62391373    0.53532814243847
             0.1688554    0.44463454202535

20 0
 s    3 1.00
            3.42525091    0.15432897070298
            0.62391373    0.53532814243847
             0.1688554    0.44463454202535

21 0
 s    3 1.00
            3.42525091    0.15432897070298
            0.62391373    0.53532814243847
             0.1688554    0.44463454202535

22 0
 s    3 1.00
           601.3456136    0.15432896729774
           109.5358542    0.53532814229217
           29.64467686    0.44463454219349
 s    3 1.00
           38.96041889  -0.099967229186777
           9.053563477    0.39951282608712
           2.944499834    0.70011546887743
 s    3 1.00
           2.129386495   -0.21962036900814
          0.5940934274    0.22559543360836
           0.232524141    0.90039842603337
 p    3 1.00
           38.96041889     0.1559162749995
           9.053563477    0.60768371859807
           2.944499834    0.39195739309875
 p    3 1.00
           2.129386495   0.010587604289287
          0.5940934274    0.59516700525994
           0.232524141    0.46200101196891

23 0
 s    3 1.00
             130.70932    0.15432896872316
             23.808861    0.53532813557095
             6.4436083    0.44463453632131
 s    3 1.00
             5.0331513  -0.099967228656673
             1.1695961    0.39951282463148
              0.380389    0.70011546059208
 p    3 1.00
             5.0331513    0.15591626847816
             1.1695961    0.60768371406861
              0.380389    0.39195738617424

24 0
 s    3 1.00
            3.42525091    0.15432897070298
            0.62391373    0.53532814243847
             0.1688554    0.44463454202535

25 0
 s    3 1.00
            3.42525091    0.15432897070298
            0.62391373    0.53532814243847
             0.1688554    0.44463454202535

[5d]
[9g]


[MO]
 Sym= A
 Ene=    -238.6771865
 Spin= Alpha
 Occup=    2.00000
   1      0.99279201927231
   2     0.018624799431042
   3    -0.0027272576796831
   4    0.00095719215863441
   5    -5.6075319405648e-06
   6    -4.6957175439352e-07
   7    8.8640161167736e-06
   8    -1.4109503010637e-05
   9    -3.8472656189966e-06
  10    -4.3555257611301e-06
  11    6.943616434531e-05
  12    1.9305208439936e-05
  13    2.8513712139656e-05
  14    -3.8207539152854e-07
  15    6.7982940067141e-06
  16    1.5878262187343e-06
  17    -1.6388441775768e-06
  18    1.423671229133e-07
  19    1.5589012779155e-05
  20    -0.00014219905987454
  21    -3.7527323589439e-05
  22    5.3910641866348e-05
  23    -3.1372494494018e-05
  24    1.5546508282433e-05
  25    -0.00014388989557149
  26    -8.6367068866632e-07
  27    -6.6637288709188e-05
  28    -2.4623894033445e-05
  29    1.7475156994287e-05
  30    -0.00017352211299955
  31    4.0158791037056e-05
  32    8.6486988346805e-05
  33    4.2478198311743e-05
  34    1.7508067904332e-05
  35    -0.00017257549674642
  36    6.9653014486616e-05
  37    -4.9219396379693e-05
  38    6.0891653927244e-05
  39    7.3697715581737e-06
  40    -4.5088082141133e-05
  41    -2.4050760211084e-05
  42    3.0708064288754e-05
  43    -2.3844354661655e-05
  44    2.0454734722201e-06
  45    -1.818563606211e-06
  46    -2.9105579794242e-06
  47    1.4132528199942e-05
  48    -3.926631017147e-06
  49    5.1402142071553e-06
  50    -2.8210552053102e-05
  51    7.7405910306381e-06
  52    2.6064259649795e-05
  53    1.1015960844556e-05
  54    7.4031640849844e-06
  55    -4.5381696594497e-05
  56    -4.4890905486306e-06
  57    -4.1668280596204e-05
  58    -1.9089340704844e-05
  59    2.0411232331514e-06
  60    -1.8438736728474e-06
  61    3.890770176681e-06
  62    -1.4096727486033e-05
  63    -1.3127335299893e-06
  64    5.0838806473335e-06
  65    -2.7851651508495e-05
  66    1.7904587384181e-05
  67    -1.7102279381572e-05
  68    1.4800169271456e-05
  69    4.242482846552e-06
  70    -2.2851493099481e-05
  71    1.7606135982345e-05
  72    1.956787823703e-05
  73    2.224630791634e-05
  74    4.2152446089978e-06
  75    -2.1667742496433e-05
  76    2.6095905184228e-05
  77    -4.869678040393e-06
  78    2.4343900474298e-05
  79    -6.5477451969241e-06
  80    -6.3958545835374e-06
  81    -1.2118017708861e-05
  82    -1.6660863463264e-05
  83    -8.5378614230374e-06
  84    -8.9699728636907e-06
  85    -8.9669346678413e-06
  86    -9.0796501864575e-06
  87    -6.016225200745e-06
  88    1.5416491006544e-05
  89    -0.00016467564168015
  90    -1.8701570527541e-05
  91    -3.0092890727193e-06
  92    1.5623188309105e-05
  93    0.00010759489369876
  94    1.7305649607523e-05
  95    -9.0376678788642e-05
  96    7.3753773300972e-06
  97    -0.00017470263078065
  98    3.6623253809807e-05
  99    4.421226296664e-06
 100    -4.5123690099067e-05
 101    -5.9755414748991e-06
 102    -5.8405186398236e-06
 Sym= A
 Ene=    -103.4514951
 Spin= Alpha
 Occup=    2.00000
   1    -7.1268437925527e-06
   2    2.3806564928431e-05
   3    -6.9526907799026e-05
   4    0.00034926277774525
   5    2.0368711540364e-05
   6    3.4201226876121e-06
   7    -1.4947379907015e-05
   8    -7.688983472612e-05
   9    -1.2890612385977e-05
  10    5.6606924975296e-05
  11    0.00039719614951069
  12    6.6709365194805e-05
  13    -0.00029190764007934
  14    -7.7033867775544e-07
  15    -6.0545362744507e-06
  16    -6.8625784694176e-07
  17    5.5899397187941e-06
  18    2.6751458330682e-06
  19    7.4091523936328e-06
  20    -6.0566001046666e-05
  21    -5.1797911697539e-05
  22    2.3023203787401e-05
  23    7.6708837283854e-07
  24    7.6899935885488e-06
  25    -6.4172477464829e-05
  26    -3.3717862086334e-05
  27    -4.5068659582348e-05
  28    4.4019867032459e-06
  29    8.2598827347711e-06
  30    -8.0268882618881e-05
  31    2.9088711491091e-06
  32    5.0368778687402e-05
  33    4.5723503742442e-05
  34    8.4623496107666e-06
  35    -7.9587356762374e-05
  36    1.6880032829467e-05
  37    -3.3777591496714e-05
  38    5.6923008953745e-05
  39    1.9459361688229e-06
  40    -1.4243352218658e-05
  41    -1.0305913759248e-05
  42    9.3908778050691e-06
  43    -1.7238373251498e-06
  44    7.3830979006325e-07
  45    -2.6828305454854e-06
  46    -3.9413508957489e-06
  47    4.7061651063162e-06
  48    1.4195931101461e-06
  49    1.475821600572e-06
  50    -1.1795357514785e-05
  51    -1.9940957321497e-06
  52    8.015193167713e-06
  53    2.3990173445933e-06
  54    2.1298334595637e-06
  55    -1.5799318197744e-05
  56    -1.6887544762481e-06
  57    -1.3477396894558e-05
  58    -5.0120457407643e-06
  59    9.8928370060768e-07
  60    -4.2835636251204e-06
  61    4.5453864639629e-07
  62    -8.1267340868625e-06
  63    8.0740727304585e-07
  64    1.2634142467113e-06
  65    -9.5724559650971e-06
  66    5.029887504595e-06
  67    -4.9779073618548e-06
  68    1.6921863490669e-06
  69    3.355995389898e-06
  70    -2.9941504147599e-05
  71    -6.0213129496396e-06
  72    5.9739397227022e-06
  73    1.2683946445918e-05
  74    1.2137035331011e-06
  75    -9.0774483419855e-06
  76     2.77017800598e-06
  77    1.8827772698682e-06
  78    6.3641235325355e-06
  79    -1.1119821593375e-06
  80    -1.5004709921067e-06
  81    3.3293898604414e-05
  82    2.4939195619389e-06
  83    -1.1407125635798e-06
  84    -1.0429671330811e-06
  85    -2.1929280096915e-06
  86    -2.9245736975082e-06
  87      0.99449194833866
  88      0.01577493681355
  89    -0.0018300456556848
  90    -6.1086500186775e-05
  91    -9.9817078099194e-06
  92    5.1990044099344e-05
  93    0.00015617623359718
  94    2.5331444547863e-05
  95    -0.00012948528836009
  96    -1.1435050843233e-05
  97    0.00013326292014195
  98    2.598621358902e-05
  99    2.946779284652e-06
 100    -3.4527646967297e-05
 101    -1.660955352962e-06
 102    -2.0996226060531e-06
 Sym= A
 Ene=    -29.23925425
 Spin= Alpha
 Occup=    2.00000
   1      -0.4227879503014
   2       1.0563052409752
   3     0.067929068219686
   4    -0.019597978352788
   5    -0.0029481185851771
   6    -0.00048338533402344
   7    0.0023675426437538
   8    0.00015970320607745
   9    5.9228380112227e-05
  10    0.0002062489493795
  11    -0.001399227503236
  12    -0.00039376368006117
  13    -0.00062179871687106
  14    5.3184436087312e-05
  15    -0.00041159959117693
  16    -7.9155692960124e-05
  17    0.00017894724924665
  18    4.7751360541766e-05
  19    -0.00026986124436177
  20    0.0028844470241963
  21    0.00075043523333618
  22    -0.0010777334731238
  23    0.00063244435109783
  24    -0.00026904830159866
  25    0.0029181077223566
  26    1.7793558743842e-05
  27    0.0013336704365217
  28    0.00049711968087607
  29    -0.00033028659220565
  30    0.0035394180334741
  31    -0.00081913497068748
  32    -0.0017618479628543
  33    -0.00086345815678775
  34    -0.00033091812019406
  35    0.0035201460190955
  36    -0.0014200183971267
  37     0.001002737968797
  38    -0.0012380482057439
  39    -0.00014440995016615
  40    0.00092050819933798
  41    0.00048642121632757
  42    -0.00062433837665605
  43    0.0004821726145541
  44    -4.0933802545464e-05
  45    4.5901543906961e-05
  46    5.9340809490974e-05
  47    -0.00028897059151897
  48    7.8810489837369e-05
  49    -0.00010106901615374
  50    0.00058061360053038
  51    -0.000156023728196
  52    -0.00053169887087673
  53    -0.00022149630303788
  54    -0.00014502562687845
  55    0.00092655888132761
  56    8.8144785913511e-05
  57    0.00084530077560298
  58    0.00038533921744651
  59    -4.0817133555778e-05
  60    4.6327448147715e-05
  61    -8.037697549532e-05
  62    0.00028761750330297
  63    2.5677903912022e-05
  64    -9.9974535591037e-05
  65    0.00057347125811913
  66    -0.00036421006111798
  67    0.00035011382895123
  68    -0.00029886050223158
  69    -8.3880101422174e-05
  70    0.00047471566760237
  71    -0.00035960508365336
  72    -0.00039626735086735
  73    -0.0004510085623412
  74    -8.3585754495259e-05
  75    0.00045246063137371
  76    -0.00053052715511303
  77    9.7897252180534e-05
  78    -0.00049505173710175
  79    0.00012899562805751
  80    0.00012605951442966
  81    0.00024706093245021
  82    0.00033852929722722
  83    0.00016751021181063
  84    0.00017621708448214
  85    0.00017682207730079
  86    0.00017886635896446
  87    0.00011666222657927
  88    -0.00028012678338488
  89     0.003341053988175
  90    0.00035780772724723
  91    5.7516046601813e-05
  92    -0.00029956033684413
  93    -0.002159772919809
  94    -0.00034710643922437
  95    0.0018171946748901
  96    -0.00012228173567774
  97    0.0035314530873117
  98    -0.00072524757133024
  99    -8.6650207714242e-05
 100    0.00090476659667079
 101    0.00011766498421843
 102    0.00011495586618212
 Sym= A
 Ene=    -25.35190313
 Spin= Alpha
 Occup=    2.00000
   1    -0.0015980099233205
   2    0.0040163919684378
   3    0.00030750735140662
   4    -0.00047010888019865
   5      0.73958894954278
   6      0.12975131160504
   7     -0.64639169970551
   8     0.020474239198039
   9    0.0035887247774427
  10    -0.017869390158195
  11    -0.0040103240577832
  12    -0.00070733890555299
  13     0.003362827384584
  14    -2.9467680633316e-05
  15    0.0002043243544891
  16    3.1968887408879e-05
  17    -0.00011748559455547
  18    -4.2372472856274e-05
  19    -8.7512768266473e-06
  20    0.00012167457767957
  21    0.00035547848449799
  22    8.8188834702403e-06
  23    -0.00022680015529835
  24    -5.610937262568e-06
  25    9.679258544863e-05
  26    0.00031212659990221
  27    0.00014028402384821
  28    -0.00024262416395064
  29    -1.4981742598591e-05
  30    0.00020259791145454
  31    0.00025312390705955
  32    -7.7651565062324e-05
  33    -0.00037720178720985
  34    -1.4318948859707e-05
  35    0.00017128238729142
  36    0.00025529300799106
  37    0.00014385838426261
  38    -0.00035197472937683
  39    -2.525374434894e-06
  40    2.2549107971925e-05
  41    8.5376180846981e-05
  42    -8.4031763764815e-07
  43    -5.1527154631321e-05
  44    5.2565115476515e-07
  45    -7.1262581091511e-06
  46    2.5797173776264e-05
  47    4.5109361856356e-06
  48    -2.8152220640463e-05
  49    -5.4613159069667e-06
  50    4.0025777093599e-05
  51    2.7384353667765e-05
  52    -1.9064021756442e-05
  53    -4.4833309384704e-05
  54    -1.2950813957126e-05
  55    7.7483509687847e-05
  56    7.7127359012961e-05
  57    9.3954353624414e-05
  58    -2.808948913293e-05
  59    -4.1414286529288e-06
  60    8.2483323498967e-06
  61    1.7806296778359e-05
  62    3.9817036773809e-05
  63    -2.2645246467663e-05
  64    -8.6721249432169e-06
  65    4.2479002683903e-05
  66    -1.0080300198067e-06
  67    3.4200862665756e-05
  68    -6.0833997214214e-05
  69    -1.2015022218748e-05
  70    6.6930259991426e-05
  71    -3.256669543892e-05
  72    -9.2532865004659e-05
  73    -8.9560156537945e-05
  74    2.2877929329313e-06
  75    1.5143229830824e-06
  76    5.7318956895603e-05
  77    -2.9269102323771e-05
  78    1.8655833606949e-05
  79    1.6378009937449e-06
  80    1.2754811822329e-05
  81    7.4602108670507e-05
  82    -8.1712212927917e-05
  83    3.8913758250436e-05
  84    -2.2254553267635e-05
  85    5.0160346639744e-06
  86    1.4535764532185e-05
  87    4.3322364812917e-05
  88    -9.4726981597764e-05
  89     0.001386673286074
  90    0.00014052991961684
  91    2.2721958287251e-05
  92    -0.00011017208384971
  93    -0.00088041411177578
  94    -0.00014234689126416
  95    0.00069648416369983
  96    -3.3232375232402e-05
  97    -0.0013250268732415
  98    0.00048093930491888
  99    8.4193138919078e-05
 100    -0.00040511571520905
 101    8.4391007935191e-07
 102    8.9441782702628e-06
 Sym= A
 Ene=    -25.32928053
 Spin= Alpha
 Occup=    2.00000
   1    1.9548044958317e-05
   2    -4.9947801594392e-05
   3    1.9100998773395e-06
   4    -3.5233106167617e-05
   5     -0.19219577726553
   6      0.97156829817796
   7    -0.024886121988844
   8    -0.0053695880351243
   9     0.027124317529387
  10    -0.00069309787591579
  11    0.0011335738828061
  12    -0.0057411185379673
  13    0.00013410811289901
  14    -3.8536255263001e-06
  15    -1.80628804789e-05
  16    0.0001083108500774
  17    4.4531703294391e-05
  18    -0.00013056155007025
  19    -6.0037151264624e-05
  20    0.00090500509020059
  21    0.00030537405647777
  22    -0.00011173834156182
  23    0.00036430093555754
  24    7.2013467532152e-05
  25    -0.0010939885654976
  26    -0.00013270470930289
  27    -0.00036880411085041
  28    -0.00035957232508114
  29    -8.6586258726539e-05
  30    0.0011079542999482
  31    -0.00041390809555332
  32    -0.00035473162749067
  33    -0.00038643544656057
  34    7.2596774562427e-05
  35    -0.00091561842153189
  36    0.00043162797114713
  37    3.4144192666239e-05
  38    0.0004060272127599
  39    -6.2894573414698e-05
  40    0.00039626838122089
  41    0.0002191417425874
  42    -0.00023951519964244
  43    0.00023262096965529
  44    -2.0969177209513e-05
  45    4.4402350521407e-05
  46    2.9848394700579e-05
  47    -0.00016103549585684
  48    4.044869172678e-05
  49    -4.431532781087e-05
  50    0.00022754338634129
  51    -0.00010533320485793
  52    -0.00021441214428265
  53    -0.0001237794631105
  54    6.4634008491967e-05
  55    -0.00042093220447775
  56    -4.8325078452128e-05
  57    -0.00035756291499606
  58    -0.0001958634032089
  59    2.0053227480531e-05
  60    -3.9985379076145e-05
  61    5.1247635714874e-05
  62    -0.00014924479119528
  63    -1.6215019865294e-05
  64    4.0613164183956e-05
  65    -0.00019744691840818
  66    0.00017123570563621
  67    -0.0001007975327727
  68    0.00015272725262299
  69    -9.7723059926053e-06
  70    8.803275568308e-05
  71    -6.3826833788674e-05
  72    7.2864506103623e-06
  73    -4.0043383872592e-05
  74    4.1210085362106e-06
  75    -5.4556970858077e-05
  76    -9.9540062739585e-06
  77    5.1304675476225e-05
  78    2.7350259787237e-05
  79    7.1092041537023e-05
  80    -6.8464923150122e-05
  81    2.6423673452907e-05
  82    -1.2484036182054e-05
  83    7.6628211552247e-06
  84    6.7802531846852e-06
  85    8.6793888172953e-05
  86    -8.8305750767965e-05
  87    -3.6873912174352e-07
  88    8.3102830146616e-07
  89    -1.1543599122338e-05
  90    1.3359335345032e-05
  91    -7.4485448778657e-05
  92    3.8823553042398e-06
  93    -7.2688688522437e-05
  94    0.00041189746518472
  95    -2.158395783473e-05
  96    -1.1137868576553e-06
  97    4.2814573895862e-05
  98    -0.00011625296418451
  99    0.00062941860006509
 100    -1.7459924580201e-05
 101    5.8737311752413e-05
 102    -5.6034388753045e-05
 Sym= A
 Ene=    -25.32904123
 Spin= Alpha
 Occup=    2.00000
   1    -2.3467033166712e-05
   2    5.0183201205932e-05
   3    6.7779300194891e-05
   4    -0.00051006857780805
   5      0.63058772482326
   6      0.14396536705726
   7      0.75041919226569
   8     0.017626521537932
   9    0.0040224137422839
  10     0.020951807993066
  11    -0.003835767226825
  12    -0.00088697416497704
  13    -0.004513100750377
  14    0.00014040394789716
  15    -3.9224525401728e-05
  16    -2.8232681449247e-06
  17    -9.6198445020145e-05
  18    -4.3706145176874e-05
  19    8.0491088677661e-05
  20    -0.0011384611244626
  21    -0.00014291095378096
  22    0.00058694357227233
  23    -9.6002511824284e-05
  24    6.8781447315384e-05
  25    -0.00098217424725564
  26    0.00020482663729606
  27    -0.00052302866514703
  28    5.7543840477819e-05
  29    -8.8437280268971e-05
  30     0.001153183832357
  31    -0.00012858304993615
  32    -0.00069441070324761
  33    -8.8389873687544e-05
  34    -0.00010081229344401
  35    0.0013044553145318
  36    -0.00045589654260402
  37    0.00053284495355788
  38    -0.0003372834815431
  39    2.051683452885e-05
  40    -0.00019835206839609
  41    -3.987078202366e-05
  42    0.00012562072153546
  43    -3.2049820081709e-05
  44    -8.3487305646509e-07
  45    1.2751029046526e-05
  46    -2.3264935342422e-06
  47    -1.0570133202139e-05
  48    1.2598749077727e-06
  49    -1.2327825639956e-05
  50    0.00013437580638926
  51    1.9194633833531e-05
  52    -7.525424478901e-05
  53    1.4681346298335e-05
  54    1.034385775156e-05
  55    -0.0001314362853822
  56    3.7287453590971e-05
  57    -7.4565430172552e-05
  58    1.7955886616879e-05
  59    -4.11382971107e-06
  60    1.9981931106763e-05
  61    -1.2808231347051e-05
  62    3.3684584992792e-05
  63    -1.5669862319556e-06
  64    -1.9493379123702e-05
  65    0.00016969514828012
  66    -4.9029254966951e-05
  67    9.3732501641854e-05
  68    -2.1830370832507e-05
  69    -3.4991408680064e-05
  70    0.0002031496494775
  71    -0.00014256413304535
  72    -0.00019879864562094
  73    -0.00018776266689054
  74    -3.78556500469e-05
  75    0.00021934021603683
  76    -0.00025603672836179
  77    7.2748385779736e-05
  78    -0.00021751572979181
  79    6.3530838453806e-07
  80    1.0843948835148e-05
  81    9.8695764341269e-05
  82    0.00014143988678747
  83    7.9082796785921e-05
  84    8.8380629894591e-05
  85    -1.6363639173052e-05
  86    -2.9084980353108e-06
  87    3.6799229624524e-06
  88    -7.63129000791e-06
  89    0.00012262666682618
  90    -3.3847965870232e-05
  91    -7.9702847819812e-06
  92    -7.0447954603721e-05
  93    0.00017796388378917
  94    4.326892308455e-05
  95    0.00039727836746101
  96    -8.6372043096071e-06
  97    0.00017609702277697
  98    0.00045544538900982
  99    0.00010559683532067
 100    0.00046159083653616
 101    6.3316581007793e-07
 102    9.7507252949718e-06
 Sym= A
 Ene=    -20.27261214
 Spin= Alpha
 Occup=    2.00000
   1    8.1753246213647e-05
   2    -0.00026217737706909
   3    0.00043527230844162
   4    -0.0040468805294916
   5    0.00014359067592012
   6    -0.0001296133779905
   7    0.00016887079688828
   8    -0.00046172999109129
   9    0.00041407533730338
  10    -0.00053237702281614
  11    0.0034336981074538
  12    -0.0026916752834858
  13    0.0029411226746629
  14    -1.6366629410591e-05
  15    -0.00023429665792297
  16    0.00030937857782857
  17    -4.7789830177482e-05
  18    0.0002883767654191
  19      0.99367374905739
  20     0.027795228663411
  21    0.00067031080942985
  22    0.0032549608897139
  23    0.0017482184052995
  24     0.014805146643704
  25    0.0012151752689874
  26    -0.00017559402354756
  27    0.00059718855656389
  28    -1.5564593661631e-05
  29    -7.0738013714933e-05
  30    0.00070890042453415
  31    -0.00046471539310921
  32    -0.00019297048635541
  33    -0.00044803316507828
  34    7.6955884307623e-05
  35    -0.00088936790308378
  36    0.00044041807687327
  37    -0.00029474860215359
  38    0.00039312443619519
  39    0.00047074307682128
  40    -0.0056133008830422
  41    -0.00066821652338014
  42     0.005219300697554
  43    0.00041953993187451
  44    -4.4229696124971e-05
  45    0.00023403333136916
  46    0.00032111602603537
  47    -0.00064314218036465
  48    0.00025709819368178
  49    -2.8234535361548e-05